Program Version,EnergyPlus, Version 9.5.0-de239b2e5f, YMD=2022.05.18 09:12
1,5,Environment Title[],Latitude[deg],Longitude[deg],Time Zone[],Elevation[m]
2,8,Day of Simulation[],Month[],Day of Month[],DST Indicator[1=yes 0=no],Hour[],StartMinute[],EndMinute[],DayType
3,5,Cumulative Day of Simulation[],Month[],Day of Month[],DST Indicator[1=yes 0=no],DayType  ! When Daily Report Variables Requested
4,2,Cumulative Days of Simulation[],Month[]  ! When Monthly Report Variables Requested
5,1,Cumulative Days of Simulation[] ! When Run Period Report Variables Requested
6,1,Calendar Year of Simulation[] ! When Annual Report Variables Requested
8,1,Electricity:Facility [J] !TimeStep
912,1,NaturalGas:Facility [J] !TimeStep
End of Data Dictionary
1,WINDSOR INTL AP ANN CLG .4% CONDNS DB=>MWB HVAC Sizing Pass 1,  42.28, -82.96,  -5.00, 189.60
2,1, 7,21, 0, 1, 0.00,10.00,SummerDesignDay
8,2621761.3931309946
912,4662.082805946084
2,1, 7,21, 0, 1,10.00,20.00,SummerDesignDay
8,2640788.1776810025
912,4662.082805946084
2,1, 7,21, 0, 1,20.00,30.00,SummerDesignDay
8,2621761.3931309946
912,4662.082805946084
2,1, 7,21, 0, 1,30.00,40.00,SummerDesignDay
8,2637510.6137323158
912,4662.082805946084
2,1, 7,21, 0, 1,40.00,50.00,SummerDesignDay
8,2621761.3931309946
912,4662.082805946084
2,1, 7,21, 0, 1,50.00,60.00,SummerDesignDay
8,2635447.8201587016
912,175749.51191218274
2,1, 7,21, 0, 2, 0.00,10.00,SummerDesignDay
8,2621761.3931309946
912,109521.95765444762
2,1, 7,21, 0, 2,10.00,20.00,SummerDesignDay
8,2621761.3931309946
912,4662.082805946084
2,1, 7,21, 0, 2,20.00,30.00,SummerDesignDay
8,2621761.3931309946
912,4662.082805946084
2,1, 7,21, 0, 2,30.00,40.00,SummerDesignDay
8,2621761.3931309946
912,4662.082805946084
2,1, 7,21, 0, 2,40.00,50.00,SummerDesignDay
8,2621761.3931309946
912,4662.082805946084
2,1, 7,21, 0, 2,50.00,60.00,SummerDesignDay
8,2621761.3931309946
912,89793.41297641567
2,1, 7,21, 0, 3, 0.00,10.00,SummerDesignDay
8,2621761.3931309946
912,191822.53661830855
2,1, 7,21, 0, 3,10.00,20.00,SummerDesignDay
8,2621761.3931309946
912,4662.082805946084
2,1, 7,21, 0, 3,20.00,30.00,SummerDesignDay
8,2621761.3931309946
912,4662.082805946084
2,1, 7,21, 0, 3,30.00,40.00,SummerDesignDay
8,2621761.3931309946
912,4662.082805946084
2,1, 7,21, 0, 3,40.00,50.00,SummerDesignDay
8,2621761.3931309946
912,4662.082805946084
2,1, 7,21, 0, 3,50.00,60.00,SummerDesignDay
8,2621761.3931309946
912,18869.831447145913
2,1, 7,21, 0, 4, 0.00,10.00,SummerDesignDay
8,2621761.3931309946
912,248463.92213250814
2,1, 7,21, 0, 4,10.00,20.00,SummerDesignDay
8,2621761.3931309946
912,4662.082805946084
2,1, 7,21, 0, 4,20.00,30.00,SummerDesignDay
8,2621761.3931309946
912,4662.082805946084
2,1, 7,21, 0, 4,30.00,40.00,SummerDesignDay
8,2621761.3931309946
912,4662.082805946084
2,1, 7,21, 0, 4,40.00,50.00,SummerDesignDay
8,2621761.3931309946
912,4662.082805946084
2,1, 7,21, 0, 4,50.00,60.00,SummerDesignDay
8,2621761.3931309946
912,4662.082805946084
2,1, 7,21, 0, 5, 0.00,10.00,SummerDesignDay
8,2621761.3931309946
912,259166.90561391967
2,1, 7,21, 0, 5,10.00,20.00,SummerDesignDay
8,2621761.3931309946
912,4662.082805946084
2,1, 7,21, 0, 5,20.00,30.00,SummerDesignDay
8,2621761.3931309946
912,4662.082805946084
2,1, 7,21, 0, 5,30.00,40.00,SummerDesignDay
8,2621761.3931309946
912,4662.082805946084
2,1, 7,21, 0, 5,40.00,50.00,SummerDesignDay
8,2621761.3931309946
912,4662.082805946084
2,1, 7,21, 0, 5,50.00,60.00,SummerDesignDay
8,2621761.3931309946
912,4662.082805946084
2,1, 7,21, 0, 6, 0.00,10.00,SummerDesignDay
8,2621761.3931309946
912,259749.52279959268
2,1, 7,21, 0, 6,10.00,20.00,SummerDesignDay
8,2621761.3931309946
912,4662.082805946084
2,1, 7,21, 0, 6,20.00,30.00,SummerDesignDay
8,2621761.3931309946
912,4662.082805946084
2,1, 7,21, 0, 6,30.00,40.00,SummerDesignDay
8,2640358.066158679
912,4662.082805946084
2,1, 7,21, 0, 6,40.00,50.00,SummerDesignDay
8,2652805.056931922
912,29555.185335484362
2,1, 7,21, 0, 6,50.00,60.00,SummerDesignDay
8,2659344.9465328978
912,50625.909632302384
2,1, 7,21, 0, 7, 0.00,10.00,SummerDesignDay
8,6112793.8261981899
912,249444.80151365058
2,1, 7,21, 0, 7,10.00,20.00,SummerDesignDay
8,5644349.000798341
912,4662.082805946084
2,1, 7,21, 0, 7,20.00,30.00,SummerDesignDay
8,5025666.925480797
912,4662.082805946084
2,1, 7,21, 0, 7,30.00,40.00,SummerDesignDay
8,4779953.6107964669
912,4662.082805946084
2,1, 7,21, 0, 7,40.00,50.00,SummerDesignDay
8,4698454.732124445
912,4662.082805946084
2,1, 7,21, 0, 7,50.00,60.00,SummerDesignDay
8,4625286.065353943
912,4662.082805946084
2,1, 7,21, 0, 8, 0.00,10.00,SummerDesignDay
8,5146115.27439419
912,269270.72623608566
2,1, 7,21, 0, 8,10.00,20.00,SummerDesignDay
8,5148516.636938179
912,4662.082805946084
2,1, 7,21, 0, 8,20.00,30.00,SummerDesignDay
8,5167163.454904315
912,4662.082805946084
2,1, 7,21, 0, 8,30.00,40.00,SummerDesignDay
8,5192358.440216046
912,272168.9709718436
2,1, 7,21, 0, 8,40.00,50.00,SummerDesignDay
8,5224226.604967061
912,4662.082805946084
2,1, 7,21, 0, 8,50.00,60.00,SummerDesignDay
8,5261384.147330319
912,4662.082805946084
2,1, 7,21, 0, 9, 0.00,10.00,SummerDesignDay
8,6887677.167669688
912,381898.86807475765
2,1, 7,21, 0, 9,10.00,20.00,SummerDesignDay
8,6983198.90416073
912,401347.7777215157
2,1, 7,21, 0, 9,20.00,30.00,SummerDesignDay
8,7053121.03525646
912,401481.0956092112
2,1, 7,21, 0, 9,30.00,40.00,SummerDesignDay
8,7133805.138289983
912,401614.52978540959
2,1, 7,21, 0, 9,40.00,50.00,SummerDesignDay
8,7213924.93751045
912,375551.82916558938
2,1, 7,21, 0, 9,50.00,60.00,SummerDesignDay
8,7293597.291102283
912,326435.1323962141
2,1, 7,21, 0,10, 0.00,10.00,SummerDesignDay
8,7698293.102169193
912,325894.9543748543
2,1, 7,21, 0,10,10.00,20.00,SummerDesignDay
8,7790570.946164894
912,325301.17615668926
2,1, 7,21, 0,10,20.00,30.00,SummerDesignDay
8,7878120.010387406
912,324686.9387890795
2,1, 7,21, 0,10,30.00,40.00,SummerDesignDay
8,7963818.671816694
912,359515.47609091279
2,1, 7,21, 0,10,40.00,50.00,SummerDesignDay
8,8045379.513593624
912,400983.6770913367
2,1, 7,21, 0,10,50.00,60.00,SummerDesignDay
8,8121826.476621219
912,401100.1026824223
2,1, 7,21, 0,11, 0.00,10.00,SummerDesignDay
8,8188971.439199039
912,765738.0340731012
2,1, 7,21, 0,11,10.00,20.00,SummerDesignDay
8,8259500.630575661
912,566758.4688927241
2,1, 7,21, 0,11,20.00,30.00,SummerDesignDay
8,8317076.497680214
912,566492.9706990095
2,1, 7,21, 0,11,30.00,40.00,SummerDesignDay
8,8368016.029677539
912,646136.9361690083
2,1, 7,21, 0,11,40.00,50.00,SummerDesignDay
8,8410965.71019751
912,799377.9618519129
2,1, 7,21, 0,11,50.00,60.00,SummerDesignDay
8,8450368.199495163
912,566711.495227748
2,1, 7,21, 0,12, 0.00,10.00,SummerDesignDay
8,8474785.247834426
912,566432.0908270851
2,1, 7,21, 0,12,10.00,20.00,SummerDesignDay
8,8491964.062872524
912,703428.0759216672
2,1, 7,21, 0,12,20.00,30.00,SummerDesignDay
8,8502694.597314179
912,745052.3920340525
2,1, 7,21, 0,12,30.00,40.00,SummerDesignDay
8,8508001.781550445
912,566671.0691603812
2,1, 7,21, 0,12,40.00,50.00,SummerDesignDay
8,8509716.788426355
912,566370.9920722604
2,1, 7,21, 0,12,50.00,60.00,SummerDesignDay
8,8509270.13332977
912,759583.9125638786
2,1, 7,21, 0,13, 0.00,10.00,SummerDesignDay
8,8482905.95211805
912,688591.0183592934
2,1, 7,21, 0,13,10.00,20.00,SummerDesignDay
8,8477107.634618063
912,566625.5171715793
2,1, 7,21, 0,13,20.00,30.00,SummerDesignDay
8,8474454.235695856
912,566309.155777752
2,1, 7,21, 0,13,30.00,40.00,SummerDesignDay
8,8476314.474933729
912,813366.0419980359
2,1, 7,21, 0,13,40.00,50.00,SummerDesignDay
8,8484780.630128853
912,631132.2999229609
2,1, 7,21, 0,13,50.00,60.00,SummerDesignDay
8,8498934.084754873
912,566574.7730221722
2,1, 7,21, 0,14, 0.00,10.00,SummerDesignDay
8,8514618.110290718
912,566246.5605601331
2,1, 7,21, 0,14,10.00,20.00,SummerDesignDay
8,8534574.1218011
912,863407.3006739055
2,1, 7,21, 0,14,20.00,30.00,SummerDesignDay
8,8557831.977307514
912,573486.685416751
2,1, 7,21, 0,14,30.00,40.00,SummerDesignDay
8,8583201.931561513
912,566518.6869908947
2,1, 7,21, 0,14,40.00,50.00,SummerDesignDay
8,8609825.460482667
912,620764.387944558
2,1, 7,21, 0,14,50.00,60.00,SummerDesignDay
8,8636216.773304999
912,822326.4743181436
2,1, 7,21, 0,15, 0.00,10.00,SummerDesignDay
8,8677042.76478926
912,566727.7188820647
2,1, 7,21, 0,15,10.00,20.00,SummerDesignDay
8,8696458.432264984
912,566458.8184667844
2,1, 7,21, 0,15,20.00,30.00,SummerDesignDay
8,8711137.880240052
912,678205.2608958774
2,1, 7,21, 0,15,30.00,40.00,SummerDesignDay
8,8719636.948282443
912,769379.7535188508
2,1, 7,21, 0,15,40.00,50.00,SummerDesignDay
8,8728281.513933005
912,566689.5481833401
2,1, 7,21, 0,15,50.00,60.00,SummerDesignDay
8,8731103.718310196
912,566398.0612183866
2,1, 7,21, 0,16, 0.00,10.00,SummerDesignDay
8,8714226.110530399
912,735005.8343696488
2,1, 7,21, 0,16,10.00,20.00,SummerDesignDay
8,8687516.256664094
912,713703.0266241147
2,1, 7,21, 0,16,20.00,30.00,SummerDesignDay
8,8651815.690218447
912,566646.2639746594
2,1, 7,21, 0,16,30.00,40.00,SummerDesignDay
8,8614974.54724054
912,566336.5479453539
2,1, 7,21, 0,16,40.00,50.00,SummerDesignDay
8,8571844.266442383
912,789997.9806050798
2,1, 7,21, 0,16,50.00,60.00,SummerDesignDay
8,8523144.226827262
912,656564.6155784947
2,1, 7,21, 0,17, 0.00,10.00,SummerDesignDay
8,8466951.348328226
912,489223.509151357
2,1, 7,21, 0,17,10.00,20.00,SummerDesignDay
8,8402638.587011503
912,478095.99587847726
2,1, 7,21, 0,17,20.00,30.00,SummerDesignDay
8,8338504.593245663
912,477947.50226399247
2,1, 7,21, 0,17,30.00,40.00,SummerDesignDay
8,8265827.120167288
912,477809.0021341566
2,1, 7,21, 0,17,40.00,50.00,SummerDesignDay
8,8195398.571523641
912,477668.78020084727
2,1, 7,21, 0,17,50.00,60.00,SummerDesignDay
8,8127376.949366549
912,494383.14569542909
2,1, 7,21, 0,18, 0.00,10.00,SummerDesignDay
8,7890305.896894229
912,411595.7978767196
2,1, 7,21, 0,18,10.00,20.00,SummerDesignDay
8,7814139.513905232
912,401078.52295236408
2,1, 7,21, 0,18,20.00,30.00,SummerDesignDay
8,7749157.6897367699
912,401198.10335130416
2,1, 7,21, 0,18,30.00,40.00,SummerDesignDay
8,7691247.346366058
912,401329.6902812456
2,1, 7,21, 0,18,40.00,50.00,SummerDesignDay
8,7634987.940751749
912,401462.2416814954
2,1, 7,21, 0,18,50.00,60.00,SummerDesignDay
8,7578389.639632487
912,401595.09960665638
2,1, 7,21, 0,19, 0.00,10.00,SummerDesignDay
8,6390923.625264111
912,124427.96249063073
2,1, 7,21, 0,19,10.00,20.00,SummerDesignDay
8,6287689.3363319099
912,225637.60770106005
2,1, 7,21, 0,19,20.00,30.00,SummerDesignDay
8,6195810.776183012
912,321222.4959348486
2,1, 7,21, 0,19,30.00,40.00,SummerDesignDay
8,6098508.0765827749
912,264219.9260098619
2,1, 7,21, 0,19,40.00,50.00,SummerDesignDay
8,5991828.270131519
912,79487.30791504147
2,1, 7,21, 0,19,50.00,60.00,SummerDesignDay
8,5885586.069720406
912,320804.8919407253
2,1, 7,21, 0,20, 0.00,10.00,SummerDesignDay
8,5152189.583887479
912,209479.67802808505
2,1, 7,21, 0,20,10.00,20.00,SummerDesignDay
8,5024048.521385431
912,111524.46700205282
2,1, 7,21, 0,20,20.00,30.00,SummerDesignDay
8,4894547.514098125
912,283363.1232425761
2,1, 7,21, 0,20,30.00,40.00,SummerDesignDay
8,4737570.525459522
912,20149.700680377104
2,1, 7,21, 0,20,40.00,50.00,SummerDesignDay
8,4580983.029728442
912,294434.8306877857
2,1, 7,21, 0,20,50.00,60.00,SummerDesignDay
8,4426251.163538663
912,4662.082805946084
2,1, 7,21, 0,21, 0.00,10.00,SummerDesignDay
8,4332047.473226293
912,294120.6366058241
2,1, 7,21, 0,21,10.00,20.00,SummerDesignDay
8,4263747.693700467
912,4662.082805946084
2,1, 7,21, 0,21,20.00,30.00,SummerDesignDay
8,4207897.562795385
912,293792.5791372772
2,1, 7,21, 0,21,30.00,40.00,SummerDesignDay
8,4161508.5961482736
912,4662.082805946084
2,1, 7,21, 0,21,40.00,50.00,SummerDesignDay
8,4122615.156132479
912,293448.1494695653
2,1, 7,21, 0,21,50.00,60.00,SummerDesignDay
8,4089413.760944542
912,4662.082805946084
2,1, 7,21, 0,22, 0.00,10.00,SummerDesignDay
8,2813311.769638804
912,289544.9575552508
2,1, 7,21, 0,22,10.00,20.00,SummerDesignDay
8,2774401.1949252875
912,227508.41785817993
2,1, 7,21, 0,22,20.00,30.00,SummerDesignDay
8,2749698.787976717
912,531351.2894154864
2,1, 7,21, 0,22,30.00,40.00,SummerDesignDay
8,2730455.9999691226
912,271775.76406261269
2,1, 7,21, 0,22,40.00,50.00,SummerDesignDay
8,2768834.757080636
912,292704.8428026761
2,1, 7,21, 0,22,50.00,60.00,SummerDesignDay
8,2725294.4437371927
912,88434.97144876397
2,1, 7,21, 0,23, 0.00,10.00,SummerDesignDay
8,2764109.9058062585
912,202791.63436878558
2,1, 7,21, 0,23,10.00,20.00,SummerDesignDay
8,2727225.526564659
912,4662.082805946084
2,1, 7,21, 0,23,20.00,30.00,SummerDesignDay
8,2738875.227650685
912,4662.082805946084
2,1, 7,21, 0,23,30.00,40.00,SummerDesignDay
8,2720017.6819807307
912,4662.082805946084
2,1, 7,21, 0,23,40.00,50.00,SummerDesignDay
8,2732194.38388047
912,4662.082805946084
2,1, 7,21, 0,23,50.00,60.00,SummerDesignDay
8,2702742.8934639438
912,162963.57737577123
2,1, 7,21, 0,24, 0.00,10.00,SummerDesignDay
8,2666330.5093062284
912,122845.7481747883
2,1, 7,21, 0,24,10.00,20.00,SummerDesignDay
8,2638222.623027514
912,4662.082805946084
2,1, 7,21, 0,24,20.00,30.00,SummerDesignDay
8,2647900.35137688
912,4662.082805946084
2,1, 7,21, 0,24,30.00,40.00,SummerDesignDay
8,2636627.799206753
912,4662.082805946084
2,1, 7,21, 0,24,40.00,50.00,SummerDesignDay
8,2635871.1507953826
912,4662.082805946084
2,1, 7,21, 0,24,50.00,60.00,SummerDesignDay
8,2635004.8412708027
912,79196.86536467797
1,WINDSOR INTL AP ANN HTG 99.6% CONDNS DB HVAC Sizing Pass 1,  42.28, -82.96,  -5.00, 189.60
2,1, 1,21, 0, 1, 0.00,10.00,WinterDesignDay
8,2621761.3931309946
912,8486681.40356103
2,1, 1,21, 0, 1,10.00,20.00,WinterDesignDay
8,2621761.3931309946
912,8517264.667709189
2,1, 1,21, 0, 1,20.00,30.00,WinterDesignDay
8,2621761.3931309946
912,8542764.238721434
2,1, 1,21, 0, 1,30.00,40.00,WinterDesignDay
8,2621761.3931309946
912,8563785.005037487
2,1, 1,21, 0, 1,40.00,50.00,WinterDesignDay
8,2621761.3931309946
912,8821314.460170558
2,1, 1,21, 0, 1,50.00,60.00,WinterDesignDay
8,2621761.3931309946
912,8621360.29064217
2,1, 1,21, 0, 2, 0.00,10.00,WinterDesignDay
8,2621761.3931309946
912,8605906.674081117
2,1, 1,21, 0, 2,10.00,20.00,WinterDesignDay
8,2621761.3931309946
912,8615582.225976915
2,1, 1,21, 0, 2,20.00,30.00,WinterDesignDay
8,2621761.3931309946
912,8623623.857971356
2,1, 1,21, 0, 2,30.00,40.00,WinterDesignDay
8,2621761.3931309946
912,8858993.09069584
2,1, 1,21, 0, 2,40.00,50.00,WinterDesignDay
8,2621761.3931309946
912,8677461.175291347
2,1, 1,21, 0, 2,50.00,60.00,WinterDesignDay
8,2621761.3931309946
912,8639440.183400903
2,1, 1,21, 0, 3, 0.00,10.00,WinterDesignDay
8,2621761.3931309946
912,8643167.253906573
2,1, 1,21, 0, 3,10.00,20.00,WinterDesignDay
8,2621761.3931309946
912,8646345.478146173
2,1, 1,21, 0, 3,20.00,30.00,WinterDesignDay
8,2621761.3931309946
912,8867792.95977039
2,1, 1,21, 0, 3,30.00,40.00,WinterDesignDay
8,2621761.3931309946
912,8703755.976452396
2,1, 1,21, 0, 3,40.00,50.00,WinterDesignDay
8,2621761.3931309946
912,8651712.712236569
2,1, 1,21, 0, 3,50.00,60.00,WinterDesignDay
8,2621761.3931309946
912,8653219.521587154
2,1, 1,21, 0, 4, 0.00,10.00,WinterDesignDay
8,2621761.3931309946
912,8654578.25454947
2,1, 1,21, 0, 4,10.00,20.00,WinterDesignDay
8,2621761.3931309946
912,8867950.240862357
2,1, 1,21, 0, 4,20.00,30.00,WinterDesignDay
8,2621761.3931309946
912,8718796.851206955
2,1, 1,21, 0, 4,30.00,40.00,WinterDesignDay
8,2621761.3931309946
912,8657484.110015009
2,1, 1,21, 0, 4,40.00,50.00,WinterDesignDay
8,2621761.3931309946
912,8658295.055773884
2,1, 1,21, 0, 4,50.00,60.00,WinterDesignDay
8,2621761.3931309946
912,8659042.564278489
2,1, 1,21, 0, 5, 0.00,10.00,WinterDesignDay
8,2621761.3931309946
912,8866471.800902529
2,1, 1,21, 0, 5,10.00,20.00,WinterDesignDay
8,2621761.3931309946
912,8728575.338774907
2,1, 1,21, 0, 5,20.00,30.00,WinterDesignDay
8,2621761.3931309946
912,8660549.62257849
2,1, 1,21, 0, 5,30.00,40.00,WinterDesignDay
8,2621761.3931309946
912,8661009.978782407
2,1, 1,21, 0, 5,40.00,50.00,WinterDesignDay
8,2621761.3931309946
912,8661453.048183853
2,1, 1,21, 0, 5,50.00,60.00,WinterDesignDay
8,2621761.3931309946
912,8864562.311309416
2,1, 1,21, 0, 6, 0.00,10.00,WinterDesignDay
8,2621761.3931309946
912,8735159.581193516
2,1, 1,21, 0, 6,10.00,20.00,WinterDesignDay
8,2621761.3931309946
912,8662264.17715632
2,1, 1,21, 0, 6,20.00,30.00,WinterDesignDay
8,2621761.3931309946
912,8662548.816494907
2,1, 1,21, 0, 6,30.00,40.00,WinterDesignDay
8,2621761.3931309946
912,8662838.744577263
2,1, 1,21, 0, 6,40.00,50.00,WinterDesignDay
8,2621761.3931309946
912,8862793.49873616
2,1, 1,21, 0, 6,50.00,60.00,WinterDesignDay
8,2621761.3931309946
912,8739739.05880598
2,1, 1,21, 0, 7, 0.00,10.00,WinterDesignDay
8,2631362.2170440608
912,14326102.058369693
2,1, 1,21, 0, 7,10.00,20.00,WinterDesignDay
8,2621761.3931309946
912,9392314.579971508
2,1, 1,21, 0, 7,20.00,30.00,WinterDesignDay
8,2621761.3931309946
912,11767810.837318577
2,1, 1,21, 0, 7,30.00,40.00,WinterDesignDay
8,2621761.3931309946
912,11084456.609240346
2,1, 1,21, 0, 7,40.00,50.00,WinterDesignDay
8,2621761.3931309946
912,10670876.056947703
2,1, 1,21, 0, 7,50.00,60.00,WinterDesignDay
8,2621761.3931309946
912,10385679.443186539
2,1, 1,21, 0, 8, 0.00,10.00,WinterDesignDay
8,3076911.5792768464
912,15751713.139271036
2,1, 1,21, 0, 8,10.00,20.00,WinterDesignDay
8,3067310.75536378
912,10882317.337740347
2,1, 1,21, 0, 8,20.00,30.00,WinterDesignDay
8,3067310.75536378
912,12675696.843366553
2,1, 1,21, 0, 8,30.00,40.00,WinterDesignDay
8,3067310.75536378
912,11715633.320297024
2,1, 1,21, 0, 8,40.00,50.00,WinterDesignDay
8,3067310.75536378
912,11590010.95349799
2,1, 1,21, 0, 8,50.00,60.00,WinterDesignDay
8,3067310.75536378
912,11037629.861429114
2,1, 1,21, 0, 9, 0.00,10.00,WinterDesignDay
8,4363556.665588405
912,10122669.948108424
2,1, 1,21, 0, 9,10.00,20.00,WinterDesignDay
8,4363556.665588405
912,9799424.497914665
2,1, 1,21, 0, 9,20.00,30.00,WinterDesignDay
8,4363556.665588405
912,9590871.703048943
2,1, 1,21, 0, 9,30.00,40.00,WinterDesignDay
8,4363556.665588405
912,9418526.419547476
2,1, 1,21, 0, 9,40.00,50.00,WinterDesignDay
8,4363556.665588405
912,9281115.275210837
2,1, 1,21, 0, 9,50.00,60.00,WinterDesignDay
8,4363556.665588405
912,9135298.212827458
2,1, 1,21, 0,10, 0.00,10.00,WinterDesignDay
8,4622805.84763333
912,8757757.42530276
2,1, 1,21, 0,10,10.00,20.00,WinterDesignDay
8,4622805.84763333
912,8655335.616991627
2,1, 1,21, 0,10,20.00,30.00,WinterDesignDay
8,4622805.84763333
912,8581909.371514274
2,1, 1,21, 0,10,30.00,40.00,WinterDesignDay
8,4622805.84763333
912,8520929.3552007
2,1, 1,21, 0,10,40.00,50.00,WinterDesignDay
8,4622805.84763333
912,8470934.297239049
2,1, 1,21, 0,10,50.00,60.00,WinterDesignDay
8,4622805.84763333
912,8429931.118409295
2,1, 1,21, 0,11, 0.00,10.00,WinterDesignDay
8,4622805.84763333
912,8828894.918786863
2,1, 1,21, 0,11,10.00,20.00,WinterDesignDay
8,4622805.84763333
912,8753706.764298043
2,1, 1,21, 0,11,20.00,30.00,WinterDesignDay
8,4622805.84763333
912,8493951.490090847
2,1, 1,21, 0,11,30.00,40.00,WinterDesignDay
8,4622805.84763333
912,8713885.818368409
2,1, 1,21, 0,11,40.00,50.00,WinterDesignDay
8,4622805.84763333
912,8700195.455165105
2,1, 1,21, 0,11,50.00,60.00,WinterDesignDay
8,4622805.84763333
912,8686497.072859716
2,1, 1,21, 0,12, 0.00,10.00,WinterDesignDay
8,4622805.84763333
912,8438911.013073482
2,1, 1,21, 0,12,10.00,20.00,WinterDesignDay
8,4622805.84763333
912,8667657.266115893
2,1, 1,21, 0,12,20.00,30.00,WinterDesignDay
8,4622805.84763333
912,8662398.119159373
2,1, 1,21, 0,12,30.00,40.00,WinterDesignDay
8,4622805.84763333
912,8655788.35269973
2,1, 1,21, 0,12,40.00,50.00,WinterDesignDay
8,4622805.84763333
912,8413801.95881021
2,1, 1,21, 0,12,50.00,60.00,WinterDesignDay
8,4622805.84763333
912,8646546.720002536
2,1, 1,21, 0,13, 0.00,10.00,WinterDesignDay
8,4622805.84763333
912,8849585.843559532
2,1, 1,21, 0,13,10.00,20.00,WinterDesignDay
8,4622805.84763333
912,8856471.971091578
2,1, 1,21, 0,13,20.00,30.00,WinterDesignDay
8,4622805.84763333
912,8621738.990334936
2,1, 1,21, 0,13,30.00,40.00,WinterDesignDay
8,4622805.84763333
912,8860446.49231536
2,1, 1,21, 0,13,40.00,50.00,WinterDesignDay
8,4622805.84763333
912,8865173.533643563
2,1, 1,21, 0,13,50.00,60.00,WinterDesignDay
8,4622805.84763333
912,8865472.204646396
2,1, 1,21, 0,14, 0.00,10.00,WinterDesignDay
8,4622805.84763333
912,8673810.724974379
2,1, 1,21, 0,14,10.00,20.00,WinterDesignDay
8,4622805.84763333
912,8828001.811449284
2,1, 1,21, 0,14,20.00,30.00,WinterDesignDay
8,4622805.84763333
912,8870379.33674047
2,1, 1,21, 0,14,30.00,40.00,WinterDesignDay
8,4622805.84763333
912,8870130.502685238
2,1, 1,21, 0,14,40.00,50.00,WinterDesignDay
8,4622805.84763333
912,8777219.670020188
2,1, 1,21, 0,14,50.00,60.00,WinterDesignDay
8,4622805.84763333
912,8736174.192299333
2,1, 1,21, 0,15, 0.00,10.00,WinterDesignDay
8,4622805.84763333
912,8668928.327518106
2,1, 1,21, 0,15,10.00,20.00,WinterDesignDay
8,4622805.84763333
912,8657864.504137338
2,1, 1,21, 0,15,20.00,30.00,WinterDesignDay
8,4622805.84763333
912,8648998.60126342
2,1, 1,21, 0,15,30.00,40.00,WinterDesignDay
8,4622805.84763333
912,8413758.911362406
2,1, 1,21, 0,15,40.00,50.00,WinterDesignDay
8,4622805.84763333
912,8645961.578319448
2,1, 1,21, 0,15,50.00,60.00,WinterDesignDay
8,4622805.84763333
912,8642532.26487656
2,1, 1,21, 0,16, 0.00,10.00,WinterDesignDay
8,4622805.84763333
912,8639097.94385012
2,1, 1,21, 0,16,10.00,20.00,WinterDesignDay
8,4622805.84763333
912,8400313.804002028
2,1, 1,21, 0,16,20.00,30.00,WinterDesignDay
8,4622805.84763333
912,8637343.33666605
2,1, 1,21, 0,16,30.00,40.00,WinterDesignDay
8,4622805.84763333
912,8636138.389767226
2,1, 1,21, 0,16,40.00,50.00,WinterDesignDay
8,4622805.84763333
912,8633516.967424762
2,1, 1,21, 0,16,50.00,60.00,WinterDesignDay
8,4622805.84763333
912,8395269.630630019
2,1, 1,21, 0,17, 0.00,10.00,WinterDesignDay
8,4622805.84763333
912,8535233.430201419
2,1, 1,21, 0,17,10.00,20.00,WinterDesignDay
8,4622805.84763333
912,8460500.958882602
2,1, 1,21, 0,17,20.00,30.00,WinterDesignDay
8,4622805.84763333
912,8348412.43182097
2,1, 1,21, 0,17,30.00,40.00,WinterDesignDay
8,4622805.84763333
912,8346997.119758974
2,1, 1,21, 0,17,40.00,50.00,WinterDesignDay
8,4622805.84763333
912,8525139.161318556
2,1, 1,21, 0,17,50.00,60.00,WinterDesignDay
8,4622805.84763333
912,8487121.37498414
2,1, 1,21, 0,18, 0.00,10.00,WinterDesignDay
8,4498605.7275080899
912,8410868.629599486
2,1, 1,21, 0,18,10.00,20.00,WinterDesignDay
8,4498605.7275080899
912,8436774.923158667
2,1, 1,21, 0,18,20.00,30.00,WinterDesignDay
8,4498605.7275080899
912,8445313.722131595
2,1, 1,21, 0,18,30.00,40.00,WinterDesignDay
8,4498605.7275080899
912,8453081.43038019
2,1, 1,21, 0,18,40.00,50.00,WinterDesignDay
8,4498605.7275080899
912,8458901.219212385
2,1, 1,21, 0,18,50.00,60.00,WinterDesignDay
8,4498605.7275080899
912,8463784.827293378
2,1, 1,21, 0,19, 0.00,10.00,WinterDesignDay
8,3585809.1194536306
912,9127894.671669245
2,1, 1,21, 0,19,10.00,20.00,WinterDesignDay
8,3585809.1194536306
912,9305617.403422853
2,1, 1,21, 0,19,20.00,30.00,WinterDesignDay
8,3585809.1194536306
912,9353936.252029889
2,1, 1,21, 0,19,30.00,40.00,WinterDesignDay
8,3585809.1194536306
912,9397781.609675365
2,1, 1,21, 0,19,40.00,50.00,WinterDesignDay
8,3585809.1194536306
912,9277500.060506517
2,1, 1,21, 0,19,50.00,60.00,WinterDesignDay
8,3585809.1194536306
912,9295239.162738158
2,1, 1,21, 0,20, 0.00,10.00,WinterDesignDay
8,3067310.75536378
912,9874438.946642457
2,1, 1,21, 0,20,10.00,20.00,WinterDesignDay
8,3067310.75536378
912,9958245.598360973
2,1, 1,21, 0,20,20.00,30.00,WinterDesignDay
8,3067310.75536378
912,9695597.606367074
2,1, 1,21, 0,20,30.00,40.00,WinterDesignDay
8,3067310.75536378
912,10033034.930281794
2,1, 1,21, 0,20,40.00,50.00,WinterDesignDay
8,3067310.75536378
912,9958399.9800272
2,1, 1,21, 0,20,50.00,60.00,WinterDesignDay
8,3067310.75536378
912,9909410.13750891
2,1, 1,21, 0,21, 0.00,10.00,WinterDesignDay
8,3067310.75536378
912,10103867.412737916
2,1, 1,21, 0,21,10.00,20.00,WinterDesignDay
8,3067310.75536378
912,9846881.311130148
2,1, 1,21, 0,21,20.00,30.00,WinterDesignDay
8,3067310.75536378
912,10108360.26017881
2,1, 1,21, 0,21,30.00,40.00,WinterDesignDay
8,3067310.75536378
912,10142791.194431082
2,1, 1,21, 0,21,40.00,50.00,WinterDesignDay
8,3067310.75536378
912,9847715.11087529
2,1, 1,21, 0,21,50.00,60.00,WinterDesignDay
8,3067310.75536378
912,10156922.711610148
2,1, 1,21, 0,22, 0.00,10.00,WinterDesignDay
8,2683861.4531936144
912,1740285.1779740432
2,1, 1,21, 0,22,10.00,20.00,WinterDesignDay
8,2728957.2915545937
912,2537696.893065401
2,1, 1,21, 0,22,20.00,30.00,WinterDesignDay
8,2702246.0681722315
912,4566440.264264043
2,1, 1,21, 0,22,30.00,40.00,WinterDesignDay
8,2683861.4531936149
912,5899440.570775233
2,1, 1,21, 0,22,40.00,50.00,WinterDesignDay
8,2683861.4531936149
912,6550223.577203224
2,1, 1,21, 0,22,50.00,60.00,WinterDesignDay
8,2683861.4531936149
912,6796683.481850047
2,1, 1,21, 0,23, 0.00,10.00,WinterDesignDay
8,2683861.4531936149
912,6890026.095968712
2,1, 1,21, 0,23,10.00,20.00,WinterDesignDay
8,2683861.4531936149
912,7177707.391667331
2,1, 1,21, 0,23,20.00,30.00,WinterDesignDay
8,2683861.4531936149
912,7406404.264411373
2,1, 1,21, 0,23,30.00,40.00,WinterDesignDay
8,2683861.4531936149
912,7635751.004587523
2,1, 1,21, 0,23,40.00,50.00,WinterDesignDay
8,2683861.4531936149
912,7990509.44791276
2,1, 1,21, 0,23,50.00,60.00,WinterDesignDay
8,2683861.4531936149
912,7895397.639510388
2,1, 1,21, 0,24, 0.00,10.00,WinterDesignDay
8,2621761.3931309946
912,8102904.391155524
2,1, 1,21, 0,24,10.00,20.00,WinterDesignDay
8,2621761.3931309946
912,8205315.063589754
2,1, 1,21, 0,24,20.00,30.00,WinterDesignDay
8,2621761.3931309946
912,8374701.285527686
2,1, 1,21, 0,24,30.00,40.00,WinterDesignDay
8,2621761.3931309946
912,8537643.582981268
2,1, 1,21, 0,24,40.00,50.00,WinterDesignDay
8,2621761.3931309946
912,8407004.451225298
2,1, 1,21, 0,24,50.00,60.00,WinterDesignDay
8,2621761.3931309946
912,8452793.097843286
1,WINDSOR INTL AP ANN CLG .4% CONDNS DB=>MWB,  42.28, -82.96,  -5.00, 189.60
2,1, 7,21, 0, 1, 0.00,10.00,SummerDesignDay
8,2621761.3931309946
912,4662.082805946084
2,1, 7,21, 0, 1,10.00,20.00,SummerDesignDay
8,2640788.1776810025
912,4662.082805946084
2,1, 7,21, 0, 1,20.00,30.00,SummerDesignDay
8,2621761.3931309946
912,4662.082805946084
2,1, 7,21, 0, 1,30.00,40.00,SummerDesignDay
8,2637510.6137323158
912,4662.082805946084
2,1, 7,21, 0, 1,40.00,50.00,SummerDesignDay
8,2621761.3931309946
912,4662.082805946084
2,1, 7,21, 0, 1,50.00,60.00,SummerDesignDay
8,2635447.8201587016
912,175749.51191218274
2,1, 7,21, 0, 2, 0.00,10.00,SummerDesignDay
8,2621761.3931309946
912,109521.95765444762
2,1, 7,21, 0, 2,10.00,20.00,SummerDesignDay
8,2621761.3931309946
912,4662.082805946084
2,1, 7,21, 0, 2,20.00,30.00,SummerDesignDay
8,2621761.3931309946
912,4662.082805946084
2,1, 7,21, 0, 2,30.00,40.00,SummerDesignDay
8,2621761.3931309946
912,4662.082805946084
2,1, 7,21, 0, 2,40.00,50.00,SummerDesignDay
8,2621761.3931309946
912,4662.082805946084
2,1, 7,21, 0, 2,50.00,60.00,SummerDesignDay
8,2621761.3931309946
912,89793.41297641567
2,1, 7,21, 0, 3, 0.00,10.00,SummerDesignDay
8,2621761.3931309946
912,191822.53661830855
2,1, 7,21, 0, 3,10.00,20.00,SummerDesignDay
8,2621761.3931309946
912,4662.082805946084
2,1, 7,21, 0, 3,20.00,30.00,SummerDesignDay
8,2621761.3931309946
912,4662.082805946084
2,1, 7,21, 0, 3,30.00,40.00,SummerDesignDay
8,2621761.3931309946
912,4662.082805946084
2,1, 7,21, 0, 3,40.00,50.00,SummerDesignDay
8,2621761.3931309946
912,4662.082805946084
2,1, 7,21, 0, 3,50.00,60.00,SummerDesignDay
8,2621761.3931309946
912,18869.831447145913
2,1, 7,21, 0, 4, 0.00,10.00,SummerDesignDay
8,2621761.3931309946
912,248463.92213250814
2,1, 7,21, 0, 4,10.00,20.00,SummerDesignDay
8,2621761.3931309946
912,4662.082805946084
2,1, 7,21, 0, 4,20.00,30.00,SummerDesignDay
8,2621761.3931309946
912,4662.082805946084
2,1, 7,21, 0, 4,30.00,40.00,SummerDesignDay
8,2621761.3931309946
912,4662.082805946084
2,1, 7,21, 0, 4,40.00,50.00,SummerDesignDay
8,2621761.3931309946
912,4662.082805946084
2,1, 7,21, 0, 4,50.00,60.00,SummerDesignDay
8,2621761.3931309946
912,4662.082805946084
2,1, 7,21, 0, 5, 0.00,10.00,SummerDesignDay
8,2621761.3931309946
912,259166.90561391967
2,1, 7,21, 0, 5,10.00,20.00,SummerDesignDay
8,2621761.3931309946
912,4662.082805946084
2,1, 7,21, 0, 5,20.00,30.00,SummerDesignDay
8,2621761.3931309946
912,4662.082805946084
2,1, 7,21, 0, 5,30.00,40.00,SummerDesignDay
8,2621761.3931309946
912,4662.082805946084
2,1, 7,21, 0, 5,40.00,50.00,SummerDesignDay
8,2621761.3931309946
912,4662.082805946084
2,1, 7,21, 0, 5,50.00,60.00,SummerDesignDay
8,2621761.3931309946
912,4662.082805946084
2,1, 7,21, 0, 6, 0.00,10.00,SummerDesignDay
8,2621761.3931309946
912,259749.52279959268
2,1, 7,21, 0, 6,10.00,20.00,SummerDesignDay
8,2621761.3931309946
912,4662.082805946084
2,1, 7,21, 0, 6,20.00,30.00,SummerDesignDay
8,2621761.3931309946
912,4662.082805946084
2,1, 7,21, 0, 6,30.00,40.00,SummerDesignDay
8,2640358.066158679
912,4662.082805946084
2,1, 7,21, 0, 6,40.00,50.00,SummerDesignDay
8,2652805.056931922
912,29555.185335484362
2,1, 7,21, 0, 6,50.00,60.00,SummerDesignDay
8,2659344.9465328978
912,50625.909632302384
2,1, 7,21, 0, 7, 0.00,10.00,SummerDesignDay
8,6112793.8261981899
912,249444.80151365058
2,1, 7,21, 0, 7,10.00,20.00,SummerDesignDay
8,5644349.000798341
912,4662.082805946084
2,1, 7,21, 0, 7,20.00,30.00,SummerDesignDay
8,5025666.925480797
912,4662.082805946084
2,1, 7,21, 0, 7,30.00,40.00,SummerDesignDay
8,4779953.6107964669
912,4662.082805946084
2,1, 7,21, 0, 7,40.00,50.00,SummerDesignDay
8,4698454.732124445
912,4662.082805946084
2,1, 7,21, 0, 7,50.00,60.00,SummerDesignDay
8,4625286.065353943
912,4662.082805946084
2,1, 7,21, 0, 8, 0.00,10.00,SummerDesignDay
8,5146115.27439419
912,269270.72623608566
2,1, 7,21, 0, 8,10.00,20.00,SummerDesignDay
8,5148516.636938179
912,4662.082805946084
2,1, 7,21, 0, 8,20.00,30.00,SummerDesignDay
8,5167163.454904315
912,4662.082805946084
2,1, 7,21, 0, 8,30.00,40.00,SummerDesignDay
8,5192358.440216046
912,272168.9709718436
2,1, 7,21, 0, 8,40.00,50.00,SummerDesignDay
8,5224226.604967061
912,4662.082805946084
2,1, 7,21, 0, 8,50.00,60.00,SummerDesignDay
8,5261384.147330319