Program Version,EnergyPlus, Version 9.5.0-de239b2e5f, YMD=2022.05.18 09:12
1,5,Environment Title[],Latitude[deg],Longitude[deg],Time Zone[],Elevation[m]
2,8,Day of Simulation[],Month[],Day of Month[],DST Indicator[1=yes 0=no],Hour[],StartMinute[],EndMinute[],DayType
3,5,Cumulative Day of Simulation[],Month[],Day of Month[],DST Indicator[1=yes 0=no],DayType  ! When Daily Report Variables Requested
4,2,Cumulative Days of Simulation[],Month[]  ! When Monthly Report Variables Requested
5,1,Cumulative Days of Simulation[] ! When Run Period Report Variables Requested
6,1,Calendar Year of Simulation[] ! When Annual Report Variables Requested
8,1,Electricity:Facility [J] !TimeStep
849,1,NaturalGas:Facility [J] !TimeStep
End of Data Dictionary
1,WINDSOR INTL AP ANN CLG .4% CONDNS DB=>MWB HVAC Sizing Pass 1,  42.28, -82.96,  -5.00, 189.60
2,1, 7,21, 0, 1, 0.00,10.00,SummerDesignDay
8,797979.6847161134
849,4662.082805946084
2,1, 7,21, 0, 1,10.00,20.00,SummerDesignDay
8,797979.6847161134
849,316062.79506582589
2,1, 7,21, 0, 1,20.00,30.00,SummerDesignDay
8,797979.6847161134
849,305321.4976040614
2,1, 7,21, 0, 1,30.00,40.00,SummerDesignDay
8,797979.6847161134
849,17930.2268771297
2,1, 7,21, 0, 1,40.00,50.00,SummerDesignDay
8,797979.6847161134
849,316117.70514677788
2,1, 7,21, 0, 1,50.00,60.00,SummerDesignDay
8,797979.6847161134
849,298096.46548932566
2,1, 7,21, 0, 2, 0.00,10.00,SummerDesignDay
8,797979.6847161134
849,25138.088286935137
2,1, 7,21, 0, 2,10.00,20.00,SummerDesignDay
8,797979.6847161134
849,316144.8529064913
2,1, 7,21, 0, 2,20.00,30.00,SummerDesignDay
8,797979.6847161134
849,290797.7025890844
2,1, 7,21, 0, 2,30.00,40.00,SummerDesignDay
8,797979.6847161134
849,32411.826981097205
2,1, 7,21, 0, 2,40.00,50.00,SummerDesignDay
8,797979.6847161134
849,316172.7138614328
2,1, 7,21, 0, 2,50.00,60.00,SummerDesignDay
8,797979.6847161134
849,283455.6656573631
2,1, 7,21, 0, 3, 0.00,10.00,SummerDesignDay
8,797979.6847161134
849,39721.074184412886
2,1, 7,21, 0, 3,10.00,20.00,SummerDesignDay
8,797979.6847161134
849,316201.182726084
2,1, 7,21, 0, 3,20.00,30.00,SummerDesignDay
8,797979.6847161134
849,276100.43103406936
2,1, 7,21, 0, 3,30.00,40.00,SummerDesignDay
8,797979.6847161134
849,47036.22565099115
2,1, 7,21, 0, 3,40.00,50.00,SummerDesignDay
8,797979.6847161134
849,316230.1500512277
2,1, 7,21, 0, 3,50.00,60.00,SummerDesignDay
8,797979.6847161134
849,268760.78055886659
2,1, 7,21, 0, 4, 0.00,10.00,SummerDesignDay
8,797979.6847161134
849,54329.08433158071
2,1, 7,21, 0, 4,10.00,20.00,SummerDesignDay
8,797979.6847161134
849,316259.5044270365
2,1, 7,21, 0, 4,20.00,30.00,SummerDesignDay
8,797979.6847161134
849,261463.7463645586
2,1, 7,21, 0, 4,30.00,40.00,SummerDesignDay
8,797979.6847161134
849,61573.2862635303
2,1, 7,21, 0, 4,40.00,50.00,SummerDesignDay
8,797979.6847161134
849,316289.1346446545
2,1, 7,21, 0, 4,50.00,60.00,SummerDesignDay
8,797979.6847161134
849,254234.25073161574
2,1, 7,21, 0, 5, 0.00,10.00,SummerDesignDay
8,797979.6847161134
849,68744.63456038253
2,1, 7,21, 0, 5,10.00,20.00,SummerDesignDay
8,797979.6847161134
849,316318.9317074726
2,1, 7,21, 0, 5,20.00,30.00,SummerDesignDay
8,797979.6847161134
849,247094.84236453248
2,1, 7,21, 0, 5,30.00,40.00,SummerDesignDay
8,797979.6847161134
849,75821.33720952236
2,1, 7,21, 0, 5,40.00,50.00,SummerDesignDay
8,797979.6847161134
849,316348.7906168048
2,1, 7,21, 0, 5,50.00,60.00,SummerDesignDay
8,797979.6847161134
849,240065.52799392667
2,1, 7,21, 0, 6, 0.00,10.00,SummerDesignDay
8,797979.6847161134
849,82784.15168733738
2,1, 7,21, 0, 6,10.00,20.00,SummerDesignDay
8,797979.6847161134
849,316378.6118837977
2,1, 7,21, 0, 6,20.00,30.00,SummerDesignDay
8,797979.6847161134
849,233163.6927619574
2,1, 7,21, 0, 6,30.00,40.00,SummerDesignDay
8,834803.1900455336
849,89252.19337259812
2,1, 7,21, 0, 6,40.00,50.00,SummerDesignDay
8,860039.769381503
849,339244.8326908477
2,1, 7,21, 0, 6,50.00,60.00,SummerDesignDay
8,865400.6482960265
849,253676.51707971339
2,1, 7,21, 0, 7, 0.00,10.00,SummerDesignDay
8,2656861.841662044
849,206929.17037222009
2,1, 7,21, 0, 7,10.00,20.00,SummerDesignDay
8,2377698.1208586378
849,318498.7141881803
2,1, 7,21, 0, 7,20.00,30.00,SummerDesignDay
8,2642190.994417157
849,197928.48627012087
2,1, 7,21, 0, 7,30.00,40.00,SummerDesignDay
8,2570212.4211705254
849,124002.0118698884
2,1, 7,21, 0, 7,40.00,50.00,SummerDesignDay
8,2653369.4202885224
849,316566.30829786849
2,1, 7,21, 0, 7,50.00,60.00,SummerDesignDay
8,2739409.5549244799
849,192181.77427726316
2,1, 7,21, 0, 8, 0.00,10.00,SummerDesignDay
8,3433986.167191861
849,136725.08981177363
2,1, 7,21, 0, 8,10.00,20.00,SummerDesignDay
8,3556539.8116972225
849,333327.84245472037
2,1, 7,21, 0, 8,20.00,30.00,SummerDesignDay
8,3658995.2791788235
849,334949.59279262306
2,1, 7,21, 0, 8,30.00,40.00,SummerDesignDay
8,3757849.3090512838
849,157012.91175621688
2,1, 7,21, 0, 8,40.00,50.00,SummerDesignDay
8,3852984.152000122
849,182018.06599929543
2,1, 7,21, 0, 8,50.00,60.00,SummerDesignDay
8,3945566.940039674
849,333445.8468729333
2,1, 7,21, 0, 9, 0.00,10.00,SummerDesignDay
8,5781017.852896996
849,552889.3068555595
2,1, 7,21, 0, 9,10.00,20.00,SummerDesignDay
8,5938631.474714795
849,597340.0380057432
2,1, 7,21, 0, 9,20.00,30.00,SummerDesignDay
8,6049349.389533075
849,551921.2647245274
2,1, 7,21, 0, 9,30.00,40.00,SummerDesignDay
8,6169990.515571732
849,511190.8417651168
2,1, 7,21, 0, 9,40.00,50.00,SummerDesignDay
8,6285218.008487651
849,510964.7048517176
2,1, 7,21, 0, 9,50.00,60.00,SummerDesignDay
8,6396079.029337616
849,510721.54429581909
2,1, 7,21, 0,10, 0.00,10.00,SummerDesignDay
8,6852066.087570909
849,510473.75194143087
2,1, 7,21, 0,10,10.00,20.00,SummerDesignDay
8,6963588.993680589
849,510221.8037779009
2,1, 7,21, 0,10,20.00,30.00,SummerDesignDay
8,7065366.866031539
849,509965.6386828478
2,1, 7,21, 0,10,30.00,40.00,SummerDesignDay
8,7162976.47230703
849,566438.3351973298
2,1, 7,21, 0,10,40.00,50.00,SummerDesignDay
8,7255845.248406248
849,596033.0246410571
2,1, 7,21, 0,10,50.00,60.00,SummerDesignDay
8,7343858.373103602
849,596514.9238805223
2,1, 7,21, 0,11, 0.00,10.00,SummerDesignDay
8,7422810.297630463
849,765641.0421017236
2,1, 7,21, 0,11,10.00,20.00,SummerDesignDay
8,7509970.335248234
849,917633.4391001153
2,1, 7,21, 0,11,20.00,30.00,SummerDesignDay
8,7583127.504194466
849,917633.4391001153
2,1, 7,21, 0,11,30.00,40.00,SummerDesignDay
8,7646869.515124968
849,654807.6684102573
2,1, 7,21, 0,11,40.00,50.00,SummerDesignDay
8,7704762.865198205
849,917633.4391001153
2,1, 7,21, 0,11,50.00,60.00,SummerDesignDay
8,7757243.4066564
849,917633.4391001153
2,1, 7,21, 0,12, 0.00,10.00,SummerDesignDay
8,7793284.41946644
849,654401.5513482014
2,1, 7,21, 0,12,10.00,20.00,SummerDesignDay
8,7822975.532106488
849,917633.4391001153
2,1, 7,21, 0,12,20.00,30.00,SummerDesignDay
8,7846456.390022477
849,917633.4391001153
2,1, 7,21, 0,12,30.00,40.00,SummerDesignDay
8,7867261.450474049
849,917633.4391001153
2,1, 7,21, 0,12,40.00,50.00,SummerDesignDay
8,7885071.806844508
849,654739.7096647496
2,1, 7,21, 0,12,50.00,60.00,SummerDesignDay
8,7899854.747408181
849,917633.4391001153
2,1, 7,21, 0,13, 0.00,10.00,SummerDesignDay
8,7852473.538993407
849,917633.4391001153
2,1, 7,21, 0,13,10.00,20.00,SummerDesignDay
8,7855079.022260917
849,722519.2375767729
2,1, 7,21, 0,13,20.00,30.00,SummerDesignDay
8,7860380.263096292
849,849573.3040356482
2,1, 7,21, 0,13,30.00,40.00,SummerDesignDay
8,7868546.3904521749
849,917633.4391001153
2,1, 7,21, 0,13,40.00,50.00,SummerDesignDay
8,7885796.806933681
849,917633.4391001153
2,1, 7,21, 0,13,50.00,60.00,SummerDesignDay
8,7909206.651915299
849,654671.4978216627
2,1, 7,21, 0,14, 0.00,10.00,SummerDesignDay
8,7929727.9929588609
849,917633.4391001153
2,1, 7,21, 0,14,10.00,20.00,SummerDesignDay
8,7953756.568709886
849,917633.4391001153
2,1, 7,21, 0,14,20.00,30.00,SummerDesignDay
8,7981079.464695485
849,806413.2298891048
2,1, 7,21, 0,14,30.00,40.00,SummerDesignDay
8,8009324.818222988
849,765848.8919125686
2,1, 7,21, 0,14,40.00,50.00,SummerDesignDay
8,8036225.887212131
849,917633.4391001153
2,1, 7,21, 0,14,50.00,60.00,SummerDesignDay
8,8063399.521632902
849,917633.4391001153
2,1, 7,21, 0,15, 0.00,10.00,SummerDesignDay
8,8134575.401995581
849,654603.7222028849
2,1, 7,21, 0,15,10.00,20.00,SummerDesignDay
8,8151650.4406973649
849,917633.4391001153
2,1, 7,21, 0,15,20.00,30.00,SummerDesignDay
8,8161996.965219332
849,917633.4391001153
2,1, 7,21, 0,15,30.00,40.00,SummerDesignDay
8,8166121.083773524
849,889879.4857602195
2,1, 7,21, 0,15,40.00,50.00,SummerDesignDay
8,8167051.291391686
849,682594.8852805424
2,1, 7,21, 0,15,50.00,60.00,SummerDesignDay
8,8156545.539230966
849,917633.4391001153
2,1, 7,21, 0,16, 0.00,10.00,SummerDesignDay
8,8124929.395635967
849,917633.4391001153
2,1, 7,21, 0,16,10.00,20.00,SummerDesignDay
8,8085804.854605913
849,654536.320206789
2,1, 7,21, 0,16,20.00,30.00,SummerDesignDay
8,8038733.783169359
849,917633.4391001153
2,1, 7,21, 0,16,30.00,40.00,SummerDesignDay
8,7984616.553384692
849,917633.4391001153
2,1, 7,21, 0,16,40.00,50.00,SummerDesignDay
8,7925870.970304275
849,917633.4391001153
2,1, 7,21, 0,16,50.00,60.00,SummerDesignDay
8,7862142.015009317
849,654869.3539776382
2,1, 7,21, 0,17, 0.00,10.00,SummerDesignDay
8,7788609.381581974
849,812394.4922298446
2,1, 7,21, 0,17,10.00,20.00,SummerDesignDay
8,7705702.0316182789
849,705667.3429569983
2,1, 7,21, 0,17,20.00,30.00,SummerDesignDay
8,7623932.582339702
849,598270.2451040874
2,1, 7,21, 0,17,30.00,40.00,SummerDesignDay
8,7533082.208965977
849,679826.6007964363
2,1, 7,21, 0,17,40.00,50.00,SummerDesignDay
8,7444656.628321518
849,835402.6147543287
2,1, 7,21, 0,17,50.00,60.00,SummerDesignDay
8,7357802.567700826
849,598498.1759361726
2,1, 7,21, 0,18, 0.00,10.00,SummerDesignDay
8,7093118.773951786
849,521348.1669705403
2,1, 7,21, 0,18,10.00,20.00,SummerDesignDay
8,6995564.667430621
849,510138.2853445512
2,1, 7,21, 0,18,20.00,30.00,SummerDesignDay
8,6908564.411492594
849,510121.1858536628
2,1, 7,21, 0,18,30.00,40.00,SummerDesignDay
8,6822994.791670567
849,595795.1280094805
2,1, 7,21, 0,18,40.00,50.00,SummerDesignDay
8,6738952.263380447
849,596189.7496670751
2,1, 7,21, 0,18,50.00,60.00,SummerDesignDay
8,6655093.1131925289
849,596689.322087544
2,1, 7,21, 0,19, 0.00,10.00,SummerDesignDay
8,5366793.734039031
849,440702.24744433086
2,1, 7,21, 0,19,10.00,20.00,SummerDesignDay
8,5225865.009543618
849,428502.3789464497
2,1, 7,21, 0,19,20.00,30.00,SummerDesignDay
8,5104816.055800608
849,425294.1896674316
2,1, 7,21, 0,19,30.00,40.00,SummerDesignDay
8,4979798.689549839
849,358526.2745431178
2,1, 7,21, 0,19,40.00,50.00,SummerDesignDay
8,4836597.539779281
849,358064.9196900156
2,1, 7,21, 0,19,50.00,60.00,SummerDesignDay
8,4690683.7156251049
849,357518.6637642514
2,1, 7,21, 0,20, 0.00,10.00,SummerDesignDay
8,3867107.0977135507
849,241284.46246702507
2,1, 7,21, 0,20,10.00,20.00,SummerDesignDay
8,3684432.7862788729
849,327830.7222663051
2,1, 7,21, 0,20,20.00,30.00,SummerDesignDay
8,3498387.9801234875
849,374631.54463773107
2,1, 7,21, 0,20,30.00,40.00,SummerDesignDay
8,3270531.750937837
849,375188.2343903261
2,1, 7,21, 0,20,40.00,50.00,SummerDesignDay
8,3037978.6788125524
849,375776.879522635
2,1, 7,21, 0,20,50.00,60.00,SummerDesignDay
8,2802645.2411032465
849,369254.3137515595
2,1, 7,21, 0,21, 0.00,10.00,SummerDesignDay
8,2655580.739336372
849,230406.83066457869
2,1, 7,21, 0,21,10.00,20.00,SummerDesignDay
8,2547250.133912034
849,226709.618932098
2,1, 7,21, 0,21,20.00,30.00,SummerDesignDay
8,2457253.2761123615
849,304997.61116823498
2,1, 7,21, 0,21,30.00,40.00,SummerDesignDay
8,2381537.764271534
849,374566.2939257106
2,1, 7,21, 0,21,40.00,50.00,SummerDesignDay
8,2317083.9022130195
849,375099.8464553659
2,1, 7,21, 0,21,50.00,60.00,SummerDesignDay
8,2261319.9383645828
849,375687.29392821798
2,1, 7,21, 0,22, 0.00,10.00,SummerDesignDay
8,976177.7542005981
849,376468.6238117143
2,1, 7,21, 0,22,10.00,20.00,SummerDesignDay
8,997845.0422799228
849,339632.2004290019
2,1, 7,21, 0,22,20.00,30.00,SummerDesignDay
8,938297.1815753356
849,227054.27507051119
2,1, 7,21, 0,22,30.00,40.00,SummerDesignDay
8,904589.7195928211
849,287791.968913084
2,1, 7,21, 0,22,40.00,50.00,SummerDesignDay
8,946704.4582060301
849,374567.88627278149
2,1, 7,21, 0,22,50.00,60.00,SummerDesignDay
8,872455.0808063438
849,375024.23371295028
2,1, 7,21, 0,23, 0.00,10.00,SummerDesignDay
8,913310.2347860165
849,323301.8349065266
2,1, 7,21, 0,23,10.00,20.00,SummerDesignDay
8,860079.7447787335
849,4662.082805946084
2,1, 7,21, 0,23,20.00,30.00,SummerDesignDay
8,892141.9171293993
849,315814.7611636392
2,1, 7,21, 0,23,30.00,40.00,SummerDesignDay
8,860079.7447787335
849,318132.9809106115
2,1, 7,21, 0,23,40.00,50.00,SummerDesignDay
8,860079.7447787335
849,4662.082805946084
2,1, 7,21, 0,23,50.00,60.00,SummerDesignDay
8,860079.7447787335
849,315830.7036943366
2,1, 7,21, 0,24, 0.00,10.00,SummerDesignDay
8,797979.6847161134
849,318163.4071789687
2,1, 7,21, 0,24,10.00,20.00,SummerDesignDay
8,797979.6847161134
849,4662.082805946084
2,1, 7,21, 0,24,20.00,30.00,SummerDesignDay
8,797979.6847161134
849,315846.2951545845
2,1, 7,21, 0,24,30.00,40.00,SummerDesignDay
8,797979.6847161134
849,318195.18547480707
2,1, 7,21, 0,24,40.00,50.00,SummerDesignDay
8,797979.6847161134
849,4662.082805946084
2,1, 7,21, 0,24,50.00,60.00,SummerDesignDay
8,797979.6847161134
849,315862.57795712476
1,WINDSOR INTL AP ANN HTG 99.6% CONDNS DB HVAC Sizing Pass 1,  42.28, -82.96,  -5.00, 189.60
2,1, 1,21, 0, 1, 0.00,10.00,WinterDesignDay
8,797979.6847161134
849,12475419.181638275
2,1, 1,21, 0, 1,10.00,20.00,WinterDesignDay
8,797979.6847161134
849,12824784.220294726
2,1, 1,21, 0, 1,20.00,30.00,WinterDesignDay
8,797979.6847161134
849,12854886.026326776
2,1, 1,21, 0, 1,30.00,40.00,WinterDesignDay
8,797979.6847161134
849,12559318.291640168
2,1, 1,21, 0, 1,40.00,50.00,WinterDesignDay
8,797979.6847161134
849,12893282.083885378
2,1, 1,21, 0, 1,50.00,60.00,WinterDesignDay
8,797979.6847161134
849,12910617.299896522
2,1, 1,21, 0, 2, 0.00,10.00,WinterDesignDay
8,797979.6847161134
849,12680057.928463825
2,1, 1,21, 0, 2,10.00,20.00,WinterDesignDay
8,797979.6847161134
849,12859042.899540093
2,1, 1,21, 0, 2,20.00,30.00,WinterDesignDay
8,797979.6847161134
849,12942372.972395292
2,1, 1,21, 0, 2,30.00,40.00,WinterDesignDay
8,797979.6847161134
849,12791961.184283521
2,1, 1,21, 0, 2,40.00,50.00,WinterDesignDay
8,797979.6847161134
849,12796669.169143716
2,1, 1,21, 0, 2,50.00,60.00,WinterDesignDay
8,797979.6847161134
849,12959541.763135734
2,1, 1,21, 0, 3, 0.00,10.00,WinterDesignDay
8,797979.6847161134
849,12886486.591743749
2,1, 1,21, 0, 3,10.00,20.00,WinterDesignDay
8,797979.6847161134
849,12729003.769544065
2,1, 1,21, 0, 3,20.00,30.00,WinterDesignDay
8,797979.6847161134
849,12968322.739917348
2,1, 1,21, 0, 3,30.00,40.00,WinterDesignDay
8,797979.6847161134
849,12970326.956318414
2,1, 1,21, 0, 3,40.00,50.00,WinterDesignDay
8,797979.6847161134
849,12659151.136560088
2,1, 1,21, 0, 3,50.00,60.00,WinterDesignDay
8,797979.6847161134
849,12973862.497265427
2,1, 1,21, 0, 4, 0.00,10.00,WinterDesignDay
8,797979.6847161134
849,12977510.09176603
2,1, 1,21, 0, 4,10.00,20.00,WinterDesignDay
8,797979.6847161134
849,12661031.899466053
2,1, 1,21, 0, 4,20.00,30.00,WinterDesignDay
8,797979.6847161134
849,12977578.46806682
2,1, 1,21, 0, 4,30.00,40.00,WinterDesignDay
8,797979.6847161134
849,12980393.946506218
2,1, 1,21, 0, 4,40.00,50.00,WinterDesignDay
8,797979.6847161134
849,12737132.683951335
2,1, 1,21, 0, 4,50.00,60.00,WinterDesignDay
8,797979.6847161134
849,12907716.708037768
2,1, 1,21, 0, 5, 0.00,10.00,WinterDesignDay
8,797979.6847161134
849,12982210.82693929
2,1, 1,21, 0, 5,10.00,20.00,WinterDesignDay
8,797979.6847161134
849,12824419.679022864
2,1, 1,21, 0, 5,20.00,30.00,WinterDesignDay
8,797979.6847161134
849,12825471.016398374
2,1, 1,21, 0, 5,30.00,40.00,WinterDesignDay
8,797979.6847161134
849,12983422.694408602
2,1, 1,21, 0, 5,40.00,50.00,WinterDesignDay
8,797979.6847161134
849,12906064.693812259
2,1, 1,21, 0, 5,50.00,60.00,WinterDesignDay
8,797979.6847161134
849,12747563.186506104
2,1, 1,21, 0, 6, 0.00,10.00,WinterDesignDay
8,797979.6847161134
849,12984260.121760913
2,1, 1,21, 0, 6,10.00,20.00,WinterDesignDay
8,797979.6847161134
849,12983776.081138267
2,1, 1,21, 0, 6,20.00,30.00,WinterDesignDay
8,797979.6847161134
849,12672220.163999772
2,1, 1,21, 0, 6,30.00,40.00,WinterDesignDay
8,797979.6847161134
849,12984861.117235169
2,1, 1,21, 0, 6,40.00,50.00,WinterDesignDay
8,797979.6847161134
849,12987256.681408374
2,1, 1,21, 0, 6,50.00,60.00,WinterDesignDay
8,797979.6847161134
849,12669681.593138852
2,1, 1,21, 0, 7, 0.00,10.00,WinterDesignDay
8,807100.4674335264
849,19779382.23555813
2,1, 1,21, 0, 7,10.00,20.00,WinterDesignDay
8,797979.6847161134
849,13973026.229131125
2,1, 1,21, 0, 7,20.00,30.00,WinterDesignDay
8,797979.6847161134
849,16381134.14122806
2,1, 1,21, 0, 7,30.00,40.00,WinterDesignDay
8,797979.6847161134
849,15586292.974614425
2,1, 1,21, 0, 7,40.00,50.00,WinterDesignDay
8,797979.6847161134
849,15298234.89431082
2,1, 1,21, 0, 7,50.00,60.00,WinterDesignDay
8,797979.6847161134
849,14890199.062972865
2,1, 1,21, 0, 8, 0.00,10.00,WinterDesignDay
8,1252649.8296663115
849,21339365.528909387
2,1, 1,21, 0, 8,10.00,20.00,WinterDesignDay
8,1243529.0469488984
849,15452649.861854447
2,1, 1,21, 0, 8,20.00,30.00,WinterDesignDay
8,1243529.0469488984
849,17845833.357318358
2,1, 1,21, 0, 8,30.00,40.00,WinterDesignDay
8,1243529.0469488984
849,16682118.854520783
2,1, 1,21, 0, 8,40.00,50.00,WinterDesignDay
8,1243529.0469488984
849,16008544.53118358
2,1, 1,21, 0, 8,50.00,60.00,WinterDesignDay
8,1243529.0469488984
849,15907818.709173382
2,1, 1,21, 0, 9, 0.00,10.00,WinterDesignDay
8,2539774.9571735246
849,14727043.41246831
2,1, 1,21, 0, 9,10.00,20.00,WinterDesignDay
8,2539774.9571735246
849,14275698.25404892
2,1, 1,21, 0, 9,20.00,30.00,WinterDesignDay
8,2539774.9571735246
849,13939828.909116414
2,1, 1,21, 0, 9,30.00,40.00,WinterDesignDay
8,2539774.9571735246
849,13743475.780985687
2,1, 1,21, 0, 9,40.00,50.00,WinterDesignDay
8,2539774.9571735246
849,13634743.308592769
2,1, 1,21, 0, 9,50.00,60.00,WinterDesignDay
8,2539774.9571735246
849,13698698.360591002
2,1, 1,21, 0,10, 0.00,10.00,WinterDesignDay
8,2799024.1392184498
849,13114250.358930789
2,1, 1,21, 0,10,10.00,20.00,WinterDesignDay
8,2799024.1392184498
849,12940678.606765638
2,1, 1,21, 0,10,20.00,30.00,WinterDesignDay
8,2799024.1392184498
849,12857778.038366657
2,1, 1,21, 0,10,30.00,40.00,WinterDesignDay
8,2799024.1392184498
849,12875363.554125887
2,1, 1,21, 0,10,40.00,50.00,WinterDesignDay
8,2799024.1392184498
849,12972244.323467486
2,1, 1,21, 0,10,50.00,60.00,WinterDesignDay
8,2799024.1392184498
849,12709356.297653152
2,1, 1,21, 0,11, 0.00,10.00,WinterDesignDay
8,2799024.1392184498
849,12996645.025493294
2,1, 1,21, 0,11,10.00,20.00,WinterDesignDay
8,2799024.1392184498
849,12912391.143103518
2,1, 1,21, 0,11,20.00,30.00,WinterDesignDay
8,2799024.1392184498
849,12889508.255729534
2,1, 1,21, 0,11,30.00,40.00,WinterDesignDay
8,2799024.1392184498
849,12871901.127304834
2,1, 1,21, 0,11,40.00,50.00,WinterDesignDay
8,2799024.1392184498
849,12857289.592889172
2,1, 1,21, 0,11,50.00,60.00,WinterDesignDay
8,2799024.1392184498
849,12845085.36593945
2,1, 1,21, 0,12, 0.00,10.00,WinterDesignDay
8,2799024.1392184498
849,12835007.758938523
2,1, 1,21, 0,12,10.00,20.00,WinterDesignDay
8,2799024.1392184498
849,12826682.924435327
2,1, 1,21, 0,12,20.00,30.00,WinterDesignDay
8,2799024.1392184498
849,12819799.353609924
2,1, 1,21, 0,12,30.00,40.00,WinterDesignDay
8,2799024.1392184498
849,12814619.907865495
2,1, 1,21, 0,12,40.00,50.00,WinterDesignDay
8,2799024.1392184498
849,12810223.131038351
2,1, 1,21, 0,12,50.00,60.00,WinterDesignDay
8,2799024.1392184498
849,12806417.409937866
2,1, 1,21, 0,13, 0.00,10.00,WinterDesignDay
8,2799024.1392184498
849,13029453.001980933
2,1, 1,21, 0,13,10.00,20.00,WinterDesignDay
8,2799024.1392184498
849,13038807.209774275
2,1, 1,21, 0,13,20.00,30.00,WinterDesignDay
8,2799024.1392184498
849,13042340.077687053
2,1, 1,21, 0,13,30.00,40.00,WinterDesignDay
8,2799024.1392184498
849,13045596.516641517
2,1, 1,21, 0,13,40.00,50.00,WinterDesignDay
8,2799024.1392184498
849,13047786.432465937
2,1, 1,21, 0,13,50.00,60.00,WinterDesignDay
8,2799024.1392184498
849,13049639.095868186
2,1, 1,21, 0,14, 0.00,10.00,WinterDesignDay
8,2799024.1392184498
849,13051323.662429866
2,1, 1,21, 0,14,10.00,20.00,WinterDesignDay
8,2799024.1392184498
849,13052783.033698949
2,1, 1,21, 0,14,20.00,30.00,WinterDesignDay
8,2799024.1392184498
849,13054032.079092425
2,1, 1,21, 0,14,30.00,40.00,WinterDesignDay
8,2799024.1392184498
849,13055095.044687866
2,1, 1,21, 0,14,40.00,50.00,WinterDesignDay
8,2799024.1392184498
849,13055997.208344367
2,1, 1,21, 0,14,50.00,60.00,WinterDesignDay
8,2799024.1392184498
849,13056761.330712852
2,1, 1,21, 0,15, 0.00,10.00,WinterDesignDay
8,2799024.1392184498
849,12830776.678104395
2,1, 1,21, 0,15,10.00,20.00,WinterDesignDay
8,2799024.1392184498
849,12819572.668985978
2,1, 1,21, 0,15,20.00,30.00,WinterDesignDay
8,2799024.1392184498
849,12814381.783984915
2,1, 1,21, 0,15,30.00,40.00,WinterDesignDay
8,2799024.1392184498
849,12809645.62187905
2,1, 1,21, 0,15,40.00,50.00,WinterDesignDay
8,2799024.1392184498
849,12805637.398086882
2,1, 1,21, 0,15,50.00,60.00,WinterDesignDay
8,2799024.1392184498
849,12802279.70635365
2,1, 1,21, 0,16, 0.00,10.00,WinterDesignDay
8,2799024.1392184498
849,12800089.368649882
2,1, 1,21, 0,16,10.00,20.00,WinterDesignDay
8,2799024.1392184498
849,12798210.285034277
2,1, 1,21, 0,16,20.00,30.00,WinterDesignDay
8,2799024.1392184498
849,12796469.225720745
2,1, 1,21, 0,16,30.00,40.00,WinterDesignDay
8,2799024.1392184498
849,12794933.035831944
2,1, 1,21, 0,16,40.00,50.00,WinterDesignDay
8,2799024.1392184498
849,12793594.122909023
2,1, 1,21, 0,16,50.00,60.00,WinterDesignDay
8,2799024.1392184498
849,12792431.840051689
2,1, 1,21, 0,17, 0.00,10.00,WinterDesignDay
8,2799024.1392184498
849,12791424.420859661
2,1, 1,21, 0,17,10.00,20.00,WinterDesignDay
8,2799024.1392184498
849,12812379.673829936
2,1, 1,21, 0,17,20.00,30.00,WinterDesignDay
8,2799024.1392184498
849,12808745.424542658
2,1, 1,21, 0,17,30.00,40.00,WinterDesignDay
8,2799024.1392184498
849,12805439.067535997
2,1, 1,21, 0,17,40.00,50.00,WinterDesignDay
8,2799024.1392184498
849,12802550.984958839
2,1, 1,21, 0,17,50.00,60.00,WinterDesignDay
8,2799024.1392184498
849,12800052.999688277
2,1, 1,21, 0,18, 0.00,10.00,WinterDesignDay
8,2674824.0190932096
849,12655055.967630776
2,1, 1,21, 0,18,10.00,20.00,WinterDesignDay
8,2674824.0190932096
849,12693707.860276269
2,1, 1,21, 0,18,20.00,30.00,WinterDesignDay
8,2674824.0190932096
849,12738253.967017344
2,1, 1,21, 0,18,30.00,40.00,WinterDesignDay
8,2674824.0190932096
849,12948643.78920142
2,1, 1,21, 0,18,40.00,50.00,WinterDesignDay
8,2674824.0190932096
849,12791430.87486366
2,1, 1,21, 0,18,50.00,60.00,WinterDesignDay
8,2674824.0190932096
849,12725751.184254874
2,1, 1,21, 0,19, 0.00,10.00,WinterDesignDay
8,1762027.4110387488
849,13512834.504410489
2,1, 1,21, 0,19,10.00,20.00,WinterDesignDay
8,1762027.4110387488
849,13633812.53604261
2,1, 1,21, 0,19,20.00,30.00,WinterDesignDay
8,1762027.4110387488
849,13687753.990413107
2,1, 1,21, 0,19,30.00,40.00,WinterDesignDay
8,1762027.4110387488
849,13736518.326683753
2,1, 1,21, 0,19,40.00,50.00,WinterDesignDay
8,1762027.4110387488
849,13795002.797988346
2,1, 1,21, 0,19,50.00,60.00,WinterDesignDay
8,1762027.4110387488
849,13860018.454185697
2,1, 1,21, 0,20, 0.00,10.00,WinterDesignDay
8,1243529.0469488984
849,14309008.862274129
2,1, 1,21, 0,20,10.00,20.00,WinterDesignDay
8,1243529.0469488984
849,14400843.134789095
2,1, 1,21, 0,20,20.00,30.00,WinterDesignDay
8,1243529.0469488984
849,14448423.45324965
2,1, 1,21, 0,20,30.00,40.00,WinterDesignDay
8,1243529.0469488984
849,14489127.243784523
2,1, 1,21, 0,20,40.00,50.00,WinterDesignDay
8,1243529.0469488984
849,14522336.41806396
2,1, 1,21, 0,20,50.00,60.00,WinterDesignDay
8,1243529.0469488984
849,14488411.889154874
2,1, 1,21, 0,21, 0.00,10.00,WinterDesignDay
8,1243529.0469488984
849,14473041.495325378
2,1, 1,21, 0,21,10.00,20.00,WinterDesignDay
8,1243529.0469488984
849,14489209.975127092
2,1, 1,21, 0,21,20.00,30.00,WinterDesignDay
8,1243529.0469488984
849,14502220.494488968
2,1, 1,21, 0,21,30.00,40.00,WinterDesignDay
8,1243529.0469488984
849,14572271.489831113
2,1, 1,21, 0,21,40.00,50.00,WinterDesignDay
8,1243529.0469488984
849,14623025.610231439
2,1, 1,21, 0,21,50.00,60.00,WinterDesignDay
8,1243529.0469488984
849,14631329.822035226
2,1, 1,21, 0,22, 0.00,10.00,WinterDesignDay
8,860079.7447787334
849,3286994.2997421447
2,1, 1,21, 0,22,10.00,20.00,WinterDesignDay
8,896932.7034965277
849,6894565.689211051
2,1, 1,21, 0,22,20.00,30.00,WinterDesignDay
8,860079.7447787335
849,8890445.925026488
2,1, 1,21, 0,22,30.00,40.00,WinterDesignDay
8,860079.7447787335
849,9793668.226485633
2,1, 1,21, 0,22,40.00,50.00,WinterDesignDay
8,860079.7447787335
849,10284624.82458043
2,1, 1,21, 0,22,50.00,60.00,WinterDesignDay
8,860079.7447787335
849,10698517.071018983
2,1, 1,21, 0,23, 0.00,10.00,WinterDesignDay
8,860079.7447787335
849,10938487.036525242
2,1, 1,21, 0,23,10.00,20.00,WinterDesignDay
8,860079.7447787335
849,11365949.857016687
2,1, 1,21, 0,23,20.00,30.00,WinterDesignDay
8,860079.7447787335
849,11537128.905170214
2,1, 1,21, 0,23,30.00,40.00,WinterDesignDay
8,860079.7447787335
849,11581949.90936382
2,1, 1,21, 0,23,40.00,50.00,WinterDesignDay
8,860079.7447787335
849,11995673.669071025
2,1, 1,21, 0,23,50.00,60.00,WinterDesignDay
8,860079.7447787335
849,12143190.555587242
2,1, 1,21, 0,24, 0.00,10.00,WinterDesignDay
8,797979.6847161134
849,12056826.941409115
2,1, 1,21, 0,24,10.00,20.00,WinterDesignDay
8,797979.6847161134
849,12482256.359483412
2,1, 1,21, 0,24,20.00,30.00,WinterDesignDay
8,797979.6847161134
849,12572275.825818703
2,1, 1,21, 0,24,30.00,40.00,WinterDesignDay
8,797979.6847161134
849,12327690.452007927
2,1, 1,21, 0,24,40.00,50.00,WinterDesignDay
8,797979.6847161134
849,12703768.576237787
2,1, 1,21, 0,24,50.00,60.00,WinterDesignDay
8,797979.6847161134
849,12755718.684038222
1,WINDSOR INTL AP ANN CLG .4% CONDNS DB=>MWB,  42.28, -82.96,  -5.00, 189.60
2,1, 7,21, 0, 1, 0.00,10.00,SummerDesignDay
8,797979.6847161134
849,4662.082805946084
2,1, 7,21, 0, 1,10.00,20.00,SummerDesignDay
8,797979.6847161134
849,316062.79506582589
2,1, 7,21, 0, 1,20.00,30.00,SummerDesignDay
8,797979.6847161134
849,305321.4976040614
2,1, 7,21, 0, 1,30.00,40.00,SummerDesignDay
8,797979.6847161134
849,17930.2268771297
2,1, 7,21, 0, 1,40.00,50.00,SummerDesignDay
8,797979.6847161134
849,316117.70514677788
2,1, 7,21, 0, 1,50.00,60.00,SummerDesignDay
8,797979.6847161134
849,298096.46548932566
2,1, 7,21, 0, 2, 0.00,10.00,SummerDesignDay
8,797979.6847161134
849,25138.088286935137
2,1, 7,21, 0, 2,10.00,20.00,SummerDesignDay
8,797979.6847161134
849,316144.8529064913
2,1, 7,21, 0, 2,20.00,30.00,SummerDesignDay
8,797979.6847161134
849,290797.7025890844
2,1, 7,21, 0, 2,30.00,40.00,SummerDesignDay
8,797979.6847161134
849,32411.826981097205
2,1, 7,21, 0, 2,40.00,50.00,SummerDesignDay
8,797979.6847161134
849,316172.7138614328
2,1, 7,21, 0, 2,50.00,60.00,SummerDesignDay
8,797979.6847161134
849,283455.6656573631
2,1, 7,21, 0, 3, 0.00,10.00,SummerDesignDay
8,797979.6847161134
849,39721.074184412886
2,1, 7,21, 0, 3,10.00,20.00,SummerDesignDay
8,797979.6847161134
849,316201.182726084
2,1, 7,21, 0, 3,20.00,30.00,SummerDesignDay
8,797979.6847161134
849,276100.43103406936
2,1, 7,21, 0, 3,30.00,40.00,SummerDesignDay
8,797979.6847161134
849,47036.22565099115
2,1, 7,21, 0, 3,40.00,50.00,SummerDesignDay
8,797979.6847161134
849,316230.1500512277
2,1, 7,21, 0, 3,50.00,60.00,SummerDesignDay
8,797979.6847161134
849,268760.78055886659
2,1, 7,21, 0, 4, 0.00,10.00,SummerDesignDay
8,797979.6847161134
849,54329.08433158071
2,1, 7,21, 0, 4,10.00,20.00,SummerDesignDay
8,797979.6847161134
849,316259.5044270365
2,1, 7,21, 0, 4,20.00,30.00,SummerDesignDay
8,797979.6847161134
849,261463.7463645586
2,1, 7,21, 0, 4,30.00,40.00,SummerDesignDay
8,797979.6847161134
849,61573.2862635303
2,1, 7,21, 0, 4,40.00,50.00,SummerDesignDay
8,797979.6847161134
849,316289.1346446545
2,1, 7,21, 0, 4,50.00,60.00,SummerDesignDay
8,797979.6847161134
849,254234.25073161574
2,1, 7,21, 0, 5, 0.00,10.00,SummerDesignDay
8,797979.6847161134
849,68744.63456038253
2,1, 7,21, 0, 5,10.00,20.00,SummerDesignDay
8,797979.6847161134
849,316318.9317074726
2,1, 7,21, 0, 5,20.00,30.00,SummerDesignDay
8,797979.6847161134
849,247094.84236453248
2,1, 7,21, 0, 5,30.00,40.00,SummerDesignDay
8,797979.6847161134
849,75821.33720952236
2,1, 7,21, 0, 5,40.00,50.00,SummerDesignDay
8,797979.6847161134
849,316348.7906168048
2,1, 7,21, 0, 5,50.00,60.00,SummerDesignDay
8,797979.6847161134
849,240065.52799392667
2,1, 7,21, 0, 6, 0.00,10.00,SummerDesignDay
8,797979.6847161134
849,82784.15168733738
2,1, 7,21, 0, 6,10.00,20.00,SummerDesignDay
8,797979.6847161134
849,316378.6118837977
2,1, 7,21, 0, 6,20.00,30.00,SummerDesignDay
8,797979.6847161134
849,233163.6927619574
2,1, 7,21, 0, 6,30.00,40.00,SummerDesignDay
8,834803.1900455336
849,89252.19337259812
2,1, 7,21, 0, 6,40.00,50.00,SummerDesignDay
8,860039.769381503
849,339244.8326908477
2,1, 7,21, 0, 6,50.00,60.00,SummerDesignDay
8,865400.6482960265
849,253676.51707971339
2,1, 7,21, 0, 7, 0.00,10.00,SummerDesignDay
8,2656861.841662044
849,206929.17037222009
2,1, 7,21, 0, 7,10.00,20.00,SummerDesignDay
8,2377698.1208586378
849,318498.7141881803
2,1, 7,21, 0, 7,20.00,30.00,SummerDesignDay
8,2642190.994417157
849,197928.48627012087
2,1, 7,21, 0, 7,30.00,40.00,SummerDesignDay
8,2570212.4211705254
849,124002.0118698884
2,1, 7,21, 0, 7,40.00,50.00,SummerDesignDay
8,2653369.4202885224
849,316566.30829786849
2,1, 7,21, 0, 7,50.00,60.00,SummerDesignDay
8,2739409.5549244799
849,192181.77427726316
2,1, 7,21, 0, 8, 0.00,10.00,SummerDesignDay
8,3433986.167191861
849,136725.08981177363
2,1, 7,21, 0, 8,10.00,20.00,SummerDesignDay
8,3556539.8116972225
849,333327.84245472037
2,1, 7,21, 0, 8,20.00,30.00,SummerDesignDay
8,3658995.2791788235
849,334949.59279262306
2,1, 7,21, 0, 8,30.00,40.00,SummerDesignDay
8,3757849.3090512838