Program Version,EnergyPlus, Version 9.5.0-de239b2e5f, YMD=2022.05.18 09:12
1,5,Environment Title[],Latitude[deg],Longitude[deg],Time Zone[],Elevation[m]
2,8,Day of Simulation[],Month[],Day of Month[],DST Indicator[1=yes 0=no],Hour[],StartMinute[],EndMinute[],DayType
3,5,Cumulative Day of Simulation[],Month[],Day of Month[],DST Indicator[1=yes 0=no],DayType  ! When Daily Report Variables Requested
4,2,Cumulative Days of Simulation[],Month[]  ! When Monthly Report Variables Requested
5,1,Cumulative Days of Simulation[] ! When Run Period Report Variables Requested
6,1,Calendar Year of Simulation[] ! When Annual Report Variables Requested
8,1,Electricity:Facility [J] !TimeStep
728,1,DistrictCooling:Facility [J] !TimeStep
679,1,DistrictHeating:Facility [J] !TimeStep
End of Data Dictionary
1,WINDSOR INTL AP ANN CLG .4% CONDNS DB=>MWB HVAC Sizing Pass 1,  42.28, -82.96,  -5.00, 189.60
2,1, 7,21, 0, 1, 0.00,10.00,SummerDesignDay
8,332198.18390199009
679,0.0
728,0.0
2,1, 7,21, 0, 1,10.00,20.00,SummerDesignDay
8,332198.18390199009
679,0.0
728,0.0
2,1, 7,21, 0, 1,20.00,30.00,SummerDesignDay
8,332198.18390199009
679,0.0
728,0.0
2,1, 7,21, 0, 1,30.00,40.00,SummerDesignDay
8,332198.18390199009
679,0.0
728,0.0
2,1, 7,21, 0, 1,40.00,50.00,SummerDesignDay
8,332198.18390199009
679,0.0
728,0.0
2,1, 7,21, 0, 1,50.00,60.00,SummerDesignDay
8,332198.18390199009
679,0.0
728,0.0
2,1, 7,21, 0, 2, 0.00,10.00,SummerDesignDay
8,332198.18390199009
679,0.0
728,0.0
2,1, 7,21, 0, 2,10.00,20.00,SummerDesignDay
8,332198.18390199009
679,0.0
728,0.0
2,1, 7,21, 0, 2,20.00,30.00,SummerDesignDay
8,332198.18390199009
679,0.0
728,0.0
2,1, 7,21, 0, 2,30.00,40.00,SummerDesignDay
8,332198.18390199009
679,0.0
728,0.0
2,1, 7,21, 0, 2,40.00,50.00,SummerDesignDay
8,332198.18390199009
679,0.0
728,0.0
2,1, 7,21, 0, 2,50.00,60.00,SummerDesignDay
8,332198.18390199009
679,0.0
728,0.0
2,1, 7,21, 0, 3, 0.00,10.00,SummerDesignDay
8,332198.18390199009
679,0.0
728,0.0
2,1, 7,21, 0, 3,10.00,20.00,SummerDesignDay
8,332198.18390199009
679,0.0
728,0.0
2,1, 7,21, 0, 3,20.00,30.00,SummerDesignDay
8,332198.18390199009
679,0.0
728,0.0
2,1, 7,21, 0, 3,30.00,40.00,SummerDesignDay
8,332198.18390199009
679,0.0
728,0.0
2,1, 7,21, 0, 3,40.00,50.00,SummerDesignDay
8,332198.18390199009
679,0.0
728,0.0
2,1, 7,21, 0, 3,50.00,60.00,SummerDesignDay
8,332198.18390199009
679,0.0
728,0.0
2,1, 7,21, 0, 4, 0.00,10.00,SummerDesignDay
8,332198.18390199009
679,0.0
728,0.0
2,1, 7,21, 0, 4,10.00,20.00,SummerDesignDay
8,332198.18390199009
679,0.0
728,0.0
2,1, 7,21, 0, 4,20.00,30.00,SummerDesignDay
8,332198.18390199009
679,0.0
728,0.0
2,1, 7,21, 0, 4,30.00,40.00,SummerDesignDay
8,332198.18390199009
679,0.0
728,0.0
2,1, 7,21, 0, 4,40.00,50.00,SummerDesignDay
8,332198.18390199009
679,0.0
728,0.0
2,1, 7,21, 0, 4,50.00,60.00,SummerDesignDay
8,332198.18390199009
679,0.0
728,0.0
2,1, 7,21, 0, 5, 0.00,10.00,SummerDesignDay
8,332198.18390199009
679,0.0
728,0.0
2,1, 7,21, 0, 5,10.00,20.00,SummerDesignDay
8,332198.18390199009
679,0.0
728,0.0
2,1, 7,21, 0, 5,20.00,30.00,SummerDesignDay
8,332198.18390199009
679,0.0
728,0.0
2,1, 7,21, 0, 5,30.00,40.00,SummerDesignDay
8,332198.18390199009
679,0.0
728,0.0
2,1, 7,21, 0, 5,40.00,50.00,SummerDesignDay
8,332198.18390199009
679,0.0
728,0.0
2,1, 7,21, 0, 5,50.00,60.00,SummerDesignDay
8,332198.18390199009
679,0.0
728,0.0
2,1, 7,21, 0, 6, 0.00,10.00,SummerDesignDay
8,332198.18390199009
679,0.0
728,0.0
2,1, 7,21, 0, 6,10.00,20.00,SummerDesignDay
8,332198.18390199009
679,0.0
728,0.0
2,1, 7,21, 0, 6,20.00,30.00,SummerDesignDay
8,332198.18390199009
679,0.0
728,0.0
2,1, 7,21, 0, 6,30.00,40.00,SummerDesignDay
8,332198.18390199009
679,0.0
728,0.0
2,1, 7,21, 0, 6,40.00,50.00,SummerDesignDay
8,332198.18390199009
679,0.0
728,0.0
2,1, 7,21, 0, 6,50.00,60.00,SummerDesignDay
8,332198.18390199009
679,0.0
728,0.0
2,1, 7,21, 0, 7, 0.00,10.00,SummerDesignDay
8,332198.18390199009
679,0.0
728,3237921.7273312427
2,1, 7,21, 0, 7,10.00,20.00,SummerDesignDay
8,332198.18390199009
679,0.0
728,2210783.3926980106
2,1, 7,21, 0, 7,20.00,30.00,SummerDesignDay
8,332198.18390199009
679,0.0
728,3793959.748980761
2,1, 7,21, 0, 7,30.00,40.00,SummerDesignDay
8,332198.18390199009
679,0.0
728,3921392.583726936
2,1, 7,21, 0, 7,40.00,50.00,SummerDesignDay
8,332198.18390199009
679,0.0
728,4380129.534815149
2,1, 7,21, 0, 7,50.00,60.00,SummerDesignDay
8,332198.18390199009
679,0.0
728,5038694.720681016
2,1, 7,21, 0, 8, 0.00,10.00,SummerDesignDay
8,777747.5461347753
679,0.0
728,6133140.935565673
2,1, 7,21, 0, 8,10.00,20.00,SummerDesignDay
8,777747.5461347753
679,0.0
728,6670923.387111652
2,1, 7,21, 0, 8,20.00,30.00,SummerDesignDay
8,777747.5461347753
679,0.0
728,7102470.009001575
2,1, 7,21, 0, 8,30.00,40.00,SummerDesignDay
8,777747.5461347753
679,0.0
728,7484781.092118695
2,1, 7,21, 0, 8,40.00,50.00,SummerDesignDay
8,777747.5461347753
679,0.0
728,7824329.320527881
2,1, 7,21, 0, 8,50.00,60.00,SummerDesignDay
8,777747.5461347753
679,0.0
728,8133782.821740324
2,1, 7,21, 0, 9, 0.00,10.00,SummerDesignDay
8,2073993.4563594009
679,0.0
728,9908447.551138733
2,1, 7,21, 0, 9,10.00,20.00,SummerDesignDay
8,2073993.4563594009
679,0.0
728,10376123.262185205
2,1, 7,21, 0, 9,20.00,30.00,SummerDesignDay
8,2073993.4563594009
679,0.0
728,10738697.246946849
2,1, 7,21, 0, 9,30.00,40.00,SummerDesignDay
8,2073993.4563594009
679,0.0
728,11130018.119414274
2,1, 7,21, 0, 9,40.00,50.00,SummerDesignDay
8,2073993.4563594009
679,0.0
728,11515266.564155199
2,1, 7,21, 0, 9,50.00,60.00,SummerDesignDay
8,2073993.4563594009
679,0.0
728,11923494.505761929
2,1, 7,21, 0,10, 0.00,10.00,SummerDesignDay
8,2333242.638404326
679,0.0
728,12719768.919364904
2,1, 7,21, 0,10,10.00,20.00,SummerDesignDay
8,2333242.638404326
679,0.0
728,13200408.156616904
2,1, 7,21, 0,10,20.00,30.00,SummerDesignDay
8,2333242.638404326
679,0.0
728,13468187.535529836
2,1, 7,21, 0,10,30.00,40.00,SummerDesignDay
8,2333242.638404326
679,0.0
728,13695725.380804968
2,1, 7,21, 0,10,40.00,50.00,SummerDesignDay
8,2333242.638404326
679,0.0
728,13961621.988304543
2,1, 7,21, 0,10,50.00,60.00,SummerDesignDay
8,2333242.638404326
679,0.0
728,14255100.145311475
2,1, 7,21, 0,11, 0.00,10.00,SummerDesignDay
8,2333242.638404326
679,0.0
728,14533838.566574488
2,1, 7,21, 0,11,10.00,20.00,SummerDesignDay
8,2333242.638404326
679,0.0
728,14788996.982804794
2,1, 7,21, 0,11,20.00,30.00,SummerDesignDay
8,2333242.638404326
679,0.0
728,15018500.401447066
2,1, 7,21, 0,11,30.00,40.00,SummerDesignDay
8,2333242.638404326
679,0.0
728,15209660.36683556
2,1, 7,21, 0,11,40.00,50.00,SummerDesignDay
8,2333242.638404326
679,0.0
728,15386870.746296252
2,1, 7,21, 0,11,50.00,60.00,SummerDesignDay
8,2333242.638404326
679,0.0
728,15547138.338429995
2,1, 7,21, 0,12, 0.00,10.00,SummerDesignDay
8,2333242.638404326
679,0.0
728,15643464.173866602
2,1, 7,21, 0,12,10.00,20.00,SummerDesignDay
8,2333242.638404326
679,0.0
728,15610355.846012075
2,1, 7,21, 0,12,20.00,30.00,SummerDesignDay
8,2333242.638404326
679,0.0
728,15590527.083266557
2,1, 7,21, 0,12,30.00,40.00,SummerDesignDay
8,2333242.638404326
679,0.0
728,15590998.414919226
2,1, 7,21, 0,12,40.00,50.00,SummerDesignDay
8,2333242.638404326
679,0.0
728,15605141.259364825
2,1, 7,21, 0,12,50.00,60.00,SummerDesignDay
8,2333242.638404326
679,0.0
728,15625116.12178972
2,1, 7,21, 0,13, 0.00,10.00,SummerDesignDay
8,2333242.638404326
679,0.0
728,15444755.26259365
2,1, 7,21, 0,13,10.00,20.00,SummerDesignDay
8,2333242.638404326
679,0.0
728,15407554.2383621
2,1, 7,21, 0,13,20.00,30.00,SummerDesignDay
8,2333242.638404326
679,0.0
728,15381446.677226045
2,1, 7,21, 0,13,30.00,40.00,SummerDesignDay
8,2333242.638404326
679,0.0
728,15380187.66821458
2,1, 7,21, 0,13,40.00,50.00,SummerDesignDay
8,2333242.638404326
679,0.0
728,15406402.285717354
2,1, 7,21, 0,13,50.00,60.00,SummerDesignDay
8,2333242.638404326
679,0.0
728,15448279.409739532
2,1, 7,21, 0,14, 0.00,10.00,SummerDesignDay
8,2333242.638404326
679,0.0
728,15486827.890776683
2,1, 7,21, 0,14,10.00,20.00,SummerDesignDay
8,2333242.638404326
679,0.0
728,15531496.484672014
2,1, 7,21, 0,14,20.00,30.00,SummerDesignDay
8,2333242.638404326
679,0.0
728,15580542.001479846
2,1, 7,21, 0,14,30.00,40.00,SummerDesignDay
8,2333242.638404326
679,0.0
728,15630378.818006754
2,1, 7,21, 0,14,40.00,50.00,SummerDesignDay
8,2333242.638404326
679,0.0
728,15679252.88601455
2,1, 7,21, 0,14,50.00,60.00,SummerDesignDay
8,2333242.638404326
679,0.0
728,15724529.77594484
2,1, 7,21, 0,15, 0.00,10.00,SummerDesignDay
8,2333242.638404326
679,0.0
728,15933034.81420258
2,1, 7,21, 0,15,10.00,20.00,SummerDesignDay
8,2333242.638404326
679,0.0
728,15996143.698553222
2,1, 7,21, 0,15,20.00,30.00,SummerDesignDay
8,2333242.638404326
679,0.0
728,16039534.133908077
2,1, 7,21, 0,15,30.00,40.00,SummerDesignDay
8,2333242.638404326
679,0.0
728,16049605.735390025
2,1, 7,21, 0,15,40.00,50.00,SummerDesignDay
8,2333242.638404326
679,0.0
728,16044995.750084278
2,1, 7,21, 0,15,50.00,60.00,SummerDesignDay
8,2333242.638404326
679,0.0
728,16010776.719809857
2,1, 7,21, 0,16, 0.00,10.00,SummerDesignDay
8,2333242.638404326
679,0.0
728,15927914.477119755
2,1, 7,21, 0,16,10.00,20.00,SummerDesignDay
8,2333242.638404326
679,0.0
728,15825603.027166868
2,1, 7,21, 0,16,20.00,30.00,SummerDesignDay
8,2333242.638404326
679,0.0
728,15704242.34120455
2,1, 7,21, 0,16,30.00,40.00,SummerDesignDay
8,2333242.638404326
679,0.0
728,15564481.233214347
2,1, 7,21, 0,16,40.00,50.00,SummerDesignDay
8,2333242.638404326
679,0.0
728,15407620.292685986
2,1, 7,21, 0,16,50.00,60.00,SummerDesignDay
8,2333242.638404326
679,0.0
728,15235260.106814582
2,1, 7,21, 0,17, 0.00,10.00,SummerDesignDay
8,2333242.638404326
679,0.0
728,15042041.082304223
2,1, 7,21, 0,17,10.00,20.00,SummerDesignDay
8,2333242.638404326
679,0.0
728,14837474.57643859
2,1, 7,21, 0,17,20.00,30.00,SummerDesignDay
8,2333242.638404326
679,0.0
728,14622955.62813883
2,1, 7,21, 0,17,30.00,40.00,SummerDesignDay
8,2333242.638404326
679,0.0
728,14377817.172364006
2,1, 7,21, 0,17,40.00,50.00,SummerDesignDay
8,2333242.638404326
679,0.0
728,14137310.776598368
2,1, 7,21, 0,17,50.00,60.00,SummerDesignDay
8,2333242.638404326
679,0.0
728,13899586.138855618
2,1, 7,21, 0,18, 0.00,10.00,SummerDesignDay
8,2209042.518279086
679,0.0
728,13488725.450136427
2,1, 7,21, 0,18,10.00,20.00,SummerDesignDay
8,2209042.518279086
679,0.0
728,13230280.605973022
2,1, 7,21, 0,18,20.00,30.00,SummerDesignDay
8,2209042.518279086
679,0.0
728,12988001.054206487
2,1, 7,21, 0,18,30.00,40.00,SummerDesignDay
8,2209042.518279086
679,0.0
728,12728087.702656135
2,1, 7,21, 0,18,40.00,50.00,SummerDesignDay
8,2209042.518279086
679,0.0
728,12465623.048801627
2,1, 7,21, 0,18,50.00,60.00,SummerDesignDay
8,2209042.518279086
679,0.0
728,12200690.087411695
2,1, 7,21, 0,19, 0.00,10.00,SummerDesignDay
8,1296245.9102246257
679,0.0
728,10914883.107072825
2,1, 7,21, 0,19,10.00,20.00,SummerDesignDay
8,1296245.9102246257
679,0.0
728,10485657.722552676
2,1, 7,21, 0,19,20.00,30.00,SummerDesignDay
8,1296245.9102246257
679,0.0
728,10105866.892928349
2,1, 7,21, 0,19,30.00,40.00,SummerDesignDay
8,1296245.9102246257
679,0.0
728,9717295.891944858
2,1, 7,21, 0,19,40.00,50.00,SummerDesignDay
8,1296245.9102246257
679,0.0
728,9267755.39647085
2,1, 7,21, 0,19,50.00,60.00,SummerDesignDay
8,1296245.9102246257
679,0.0
728,8800945.480772263
2,1, 7,21, 0,20, 0.00,10.00,SummerDesignDay
8,777747.5461347753
679,0.0
728,7772085.087719647
2,1, 7,21, 0,20,10.00,20.00,SummerDesignDay
8,777747.5461347753
679,0.0
728,7217446.599556975
2,1, 7,21, 0,20,20.00,30.00,SummerDesignDay
8,777747.5461347753
679,0.0
728,6675300.020243177
2,1, 7,21, 0,20,30.00,40.00,SummerDesignDay
8,777747.5461347753
679,0.0
728,5993651.937004089
2,1, 7,21, 0,20,40.00,50.00,SummerDesignDay
8,777747.5461347753
679,0.0
728,5298617.122736013
2,1, 7,21, 0,20,50.00,60.00,SummerDesignDay
8,777747.5461347753
679,0.0
728,4560928.5778837869
2,1, 7,21, 0,21, 0.00,10.00,SummerDesignDay
8,777747.5461347753
679,0.0
728,4099356.4341340565
2,1, 7,21, 0,21,10.00,20.00,SummerDesignDay
8,777747.5461347753
679,0.0
728,3778547.6462481135
2,1, 7,21, 0,21,20.00,30.00,SummerDesignDay
8,777747.5461347753
679,0.0
728,3502258.6845588686
2,1, 7,21, 0,21,30.00,40.00,SummerDesignDay
8,777747.5461347753
679,0.0
728,3271262.1713651467
2,1, 7,21, 0,21,40.00,50.00,SummerDesignDay
8,777747.5461347753
679,0.0
728,3088961.802552388
2,1, 7,21, 0,21,50.00,60.00,SummerDesignDay
8,777747.5461347753
679,0.0
728,2888802.8323999878
2,1, 7,21, 0,22, 0.00,10.00,SummerDesignDay
8,394298.24396461018
679,0.0
728,0.0
2,1, 7,21, 0,22,10.00,20.00,SummerDesignDay
8,394298.24396461018
679,0.0
728,0.0
2,1, 7,21, 0,22,20.00,30.00,SummerDesignDay
8,394298.24396461018
679,0.0
728,0.0
2,1, 7,21, 0,22,30.00,40.00,SummerDesignDay
8,394298.24396461018
679,0.0
728,0.0
2,1, 7,21, 0,22,40.00,50.00,SummerDesignDay
8,394298.24396461018
679,0.0
728,0.0
2,1, 7,21, 0,22,50.00,60.00,SummerDesignDay
8,394298.24396461018
679,0.0
728,0.0
2,1, 7,21, 0,23, 0.00,10.00,SummerDesignDay
8,394298.24396461018
679,0.0
728,0.0
2,1, 7,21, 0,23,10.00,20.00,SummerDesignDay
8,394298.24396461018
679,0.0
728,0.0
2,1, 7,21, 0,23,20.00,30.00,SummerDesignDay
8,394298.24396461018
679,0.0
728,0.0
2,1, 7,21, 0,23,30.00,40.00,SummerDesignDay
8,394298.24396461018
679,0.0
728,0.0
2,1, 7,21, 0,23,40.00,50.00,SummerDesignDay
8,394298.24396461018
679,0.0
728,0.0
2,1, 7,21, 0,23,50.00,60.00,SummerDesignDay
8,394298.24396461018
679,0.0
728,0.0
2,1, 7,21, 0,24, 0.00,10.00,SummerDesignDay
8,332198.18390199009
679,0.0
728,0.0
2,1, 7,21, 0,24,10.00,20.00,SummerDesignDay
8,332198.18390199009
679,0.0
728,0.0
2,1, 7,21, 0,24,20.00,30.00,SummerDesignDay
8,332198.18390199009
679,0.0
728,0.0
2,1, 7,21, 0,24,30.00,40.00,SummerDesignDay
8,332198.18390199009
679,0.0
728,0.0
2,1, 7,21, 0,24,40.00,50.00,SummerDesignDay
8,332198.18390199009
679,0.0
728,0.0
2,1, 7,21, 0,24,50.00,60.00,SummerDesignDay
8,332198.18390199009
679,0.0
728,0.0
1,WINDSOR INTL AP ANN HTG 99.6% CONDNS DB HVAC Sizing Pass 1,  42.28, -82.96,  -5.00, 189.60
2,1, 1,21, 0, 1, 0.00,10.00,WinterDesignDay
8,332198.18390199009
679,10448548.905868467
728,0.0
2,1, 1,21, 0, 1,10.00,20.00,WinterDesignDay
8,332198.18390199009
679,10475503.554247976
728,0.0
2,1, 1,21, 0, 1,20.00,30.00,WinterDesignDay
8,332198.18390199009
679,10497822.538204331
728,0.0
2,1, 1,21, 0, 1,30.00,40.00,WinterDesignDay
8,332198.18390199009
679,10515569.572050086
728,0.0
2,1, 1,21, 0, 1,40.00,50.00,WinterDesignDay
8,332198.18390199009
679,10530403.081309006
728,0.0
2,1, 1,21, 0, 1,50.00,60.00,WinterDesignDay
8,332198.18390199009
679,10542811.67596523
728,0.0
2,1, 1,21, 0, 2, 0.00,10.00,WinterDesignDay
8,332198.18390199009
679,10553081.198054113
728,0.0
2,1, 1,21, 0, 2,10.00,20.00,WinterDesignDay
8,332198.18390199009
679,10561580.846241495
728,0.0
2,1, 1,21, 0, 2,20.00,30.00,WinterDesignDay
8,332198.18390199009
679,10568619.202269704
728,0.0
2,1, 1,21, 0, 2,30.00,40.00,WinterDesignDay
8,332198.18390199009
679,10573984.201409312
728,0.0
2,1, 1,21, 0, 2,40.00,50.00,WinterDesignDay
8,332198.18390199009
679,10578535.884955332
728,0.0
2,1, 1,21, 0, 2,50.00,60.00,WinterDesignDay
8,332198.18390199009
679,10582459.645970684
728,0.0
2,1, 1,21, 0, 3, 0.00,10.00,WinterDesignDay
8,332198.18390199009
679,10585769.336161636
728,0.0
2,1, 1,21, 0, 3,10.00,20.00,WinterDesignDay
8,332198.18390199009
679,10587952.445209798
728,0.0
2,1, 1,21, 0, 3,20.00,30.00,WinterDesignDay
8,332198.18390199009
679,10589832.125994116
728,0.0
2,1, 1,21, 0, 3,30.00,40.00,WinterDesignDay
8,332198.18390199009
679,10591581.532100717
728,0.0
2,1, 1,21, 0, 3,40.00,50.00,WinterDesignDay
8,332198.18390199009
679,10593137.455810713
728,0.0
2,1, 1,21, 0, 3,50.00,60.00,WinterDesignDay
8,332198.18390199009
679,10594506.200695459
728,0.0
2,1, 1,21, 0, 4, 0.00,10.00,WinterDesignDay
8,332198.18390199009
679,10595706.882169059
728,0.0
2,1, 1,21, 0, 4,10.00,20.00,WinterDesignDay
8,332198.18390199009
679,10596759.840561364
728,0.0
2,1, 1,21, 0, 4,20.00,30.00,WinterDesignDay
8,332198.18390199009
679,10597684.10936141
728,0.0
2,1, 1,21, 0, 4,30.00,40.00,WinterDesignDay
8,332198.18390199009
679,10598496.527428007
728,0.0
2,1, 1,21, 0, 4,40.00,50.00,WinterDesignDay
8,332198.18390199009
679,10599211.848764204
728,0.0
2,1, 1,21, 0, 4,50.00,60.00,WinterDesignDay
8,332198.18390199009
679,10599842.87595148
728,0.0
2,1, 1,21, 0, 5, 0.00,10.00,WinterDesignDay
8,332198.18390199009
679,10600400.7047114
728,0.0
2,1, 1,21, 0, 5,10.00,20.00,WinterDesignDay
8,332198.18390199009
679,10600894.932648208
728,0.0
2,1, 1,21, 0, 5,20.00,30.00,WinterDesignDay
8,332198.18390199009
679,10601333.86162311
728,0.0
2,1, 1,21, 0, 5,30.00,40.00,WinterDesignDay
8,332198.18390199009
679,10601724.671329417
728,0.0
2,1, 1,21, 0, 5,40.00,50.00,WinterDesignDay
8,332198.18390199009
679,10602073.573005408
728,0.0
2,1, 1,21, 0, 5,50.00,60.00,WinterDesignDay
8,332198.18390199009
679,10602385.941704598
728,0.0
2,1, 1,21, 0, 6, 0.00,10.00,WinterDesignDay
8,332198.18390199009
679,10602666.43103097
728,0.0
2,1, 1,21, 0, 6,10.00,20.00,WinterDesignDay
8,332198.18390199009
679,10602919.071950384
728,0.0
2,1, 1,21, 0, 6,20.00,30.00,WinterDesignDay
8,332198.18390199009
679,10603147.358060468
728,0.0
2,1, 1,21, 0, 6,30.00,40.00,WinterDesignDay
8,332198.18390199009
679,10603354.31904313
728,0.0
2,1, 1,21, 0, 6,40.00,50.00,WinterDesignDay
8,332198.18390199009
679,10603542.583973822
728,0.0
2,1, 1,21, 0, 6,50.00,60.00,WinterDesignDay
8,332198.18390199009
679,10603714.435867817
728,0.0
2,1, 1,21, 0, 7, 0.00,10.00,WinterDesignDay
8,332198.18390199009
679,16005871.18833884
728,0.0
2,1, 1,21, 0, 7,10.00,20.00,WinterDesignDay
8,332198.18390199009
679,10976755.27438889
728,0.0
2,1, 1,21, 0, 7,20.00,30.00,WinterDesignDay
8,332198.18390199009
679,13731554.793940949
728,0.0
2,1, 1,21, 0, 7,30.00,40.00,WinterDesignDay
8,332198.18390199009
679,12686261.525114153
728,0.0
2,1, 1,21, 0, 7,40.00,50.00,WinterDesignDay
8,332198.18390199009
679,12452771.518690225
728,0.0
2,1, 1,21, 0, 7,50.00,60.00,WinterDesignDay
8,332198.18390199009
679,12262614.58666594
728,0.0
2,1, 1,21, 0, 8, 0.00,10.00,WinterDesignDay
8,777747.5461347753
679,17415826.47342357
728,0.0
2,1, 1,21, 0, 8,10.00,20.00,WinterDesignDay
8,777747.5461347753
679,12191365.261143119
728,0.0
2,1, 1,21, 0, 8,20.00,30.00,WinterDesignDay
8,777747.5461347753
679,14662735.086382855
728,0.0
2,1, 1,21, 0, 8,30.00,40.00,WinterDesignDay
8,777747.5461347753
679,13545574.783783846
728,0.0
2,1, 1,21, 0, 8,40.00,50.00,WinterDesignDay
8,777747.5461347753
679,13213182.22314459
728,0.0
2,1, 1,21, 0, 8,50.00,60.00,WinterDesignDay
8,777747.5461347753
679,12952422.704179889
728,0.0
2,1, 1,21, 0, 9, 0.00,10.00,WinterDesignDay
8,2073993.4563594009
679,11687538.388872736
728,0.0
2,1, 1,21, 0, 9,10.00,20.00,WinterDesignDay
8,2073993.4563594009
679,11400248.624667295
728,0.0
2,1, 1,21, 0, 9,20.00,30.00,WinterDesignDay
8,2073993.4563594009
679,11210314.643131979
728,0.0
2,1, 1,21, 0, 9,30.00,40.00,WinterDesignDay
8,2073993.4563594009
679,11053887.865562372
728,0.0
2,1, 1,21, 0, 9,40.00,50.00,WinterDesignDay
8,2073993.4563594009
679,10929400.364397053
728,0.0
2,1, 1,21, 0, 9,50.00,60.00,WinterDesignDay
8,2073993.4563594009
679,10828609.630857014
728,0.0
2,1, 1,21, 0,10, 0.00,10.00,WinterDesignDay
8,2333242.638404326
679,10502273.442398586
728,0.0
2,1, 1,21, 0,10,10.00,20.00,WinterDesignDay
8,2333242.638404326
679,10410481.14773651
728,0.0
2,1, 1,21, 0,10,20.00,30.00,WinterDesignDay
8,2333242.638404326
679,10344874.601173412
728,0.0
2,1, 1,21, 0,10,30.00,40.00,WinterDesignDay
8,2333242.638404326
679,10290430.31732785
728,0.0
2,1, 1,21, 0,10,40.00,50.00,WinterDesignDay
8,2333242.638404326
679,10245852.79854575
728,0.0
2,1, 1,21, 0,10,50.00,60.00,WinterDesignDay
8,2333242.638404326
679,10209341.284311008
728,0.0
2,1, 1,21, 0,11, 0.00,10.00,WinterDesignDay
8,2333242.638404326
679,10179971.561412942
728,0.0
2,1, 1,21, 0,11,10.00,20.00,WinterDesignDay
8,2333242.638404326
679,10155737.134281598
728,0.0
2,1, 1,21, 0,11,20.00,30.00,WinterDesignDay
8,2333242.638404326
679,10135751.859094475
728,0.0
2,1, 1,21, 0,11,30.00,40.00,WinterDesignDay
8,2333242.638404326
679,10119902.759047602
728,0.0
2,1, 1,21, 0,11,40.00,50.00,WinterDesignDay
8,2333242.638404326
679,10106686.469901562
728,0.0
2,1, 1,21, 0,11,50.00,60.00,WinterDesignDay
8,2333242.638404326
679,10095645.72858883
728,0.0
2,1, 1,21, 0,12, 0.00,10.00,WinterDesignDay
8,2333242.638404326
679,10086513.251974535
728,0.0
2,1, 1,21, 0,12,10.00,20.00,WinterDesignDay
8,2333242.638404326
679,10078956.125356093
728,0.0
2,1, 1,21, 0,12,20.00,30.00,WinterDesignDay
8,2333242.638404326
679,10072697.66551216
728,0.0
2,1, 1,21, 0,12,30.00,40.00,WinterDesignDay
8,2333242.638404326
679,10067924.535549693
728,0.0
2,1, 1,21, 0,12,40.00,50.00,WinterDesignDay
8,2333242.638404326
679,10063880.6543195
728,0.0
2,1, 1,21, 0,12,50.00,60.00,WinterDesignDay
8,2333242.638404326
679,10060395.792052115
728,0.0
2,1, 1,21, 0,13, 0.00,10.00,WinterDesignDay
8,2333242.638404326
679,10238253.03929099
728,0.0
2,1, 1,21, 0,13,10.00,20.00,WinterDesignDay
8,2333242.638404326
679,10245731.533045922
728,0.0
2,1, 1,21, 0,13,20.00,30.00,WinterDesignDay
8,2333242.638404326
679,10248398.552600753
728,0.0
2,1, 1,21, 0,13,30.00,40.00,WinterDesignDay
8,2333242.638404326
679,10250923.093863002
728,0.0
2,1, 1,21, 0,13,40.00,50.00,WinterDesignDay
8,2333242.638404326
679,10252613.175498072
728,0.0
2,1, 1,21, 0,13,50.00,60.00,WinterDesignDay
8,2333242.638404326
679,10254043.034999375
728,0.0
2,1, 1,21, 0,14, 0.00,10.00,WinterDesignDay
8,2333242.638404326
679,10255347.112997033
728,0.0
2,1, 1,21, 0,14,10.00,20.00,WinterDesignDay
8,2333242.638404326
679,10256479.63143839
728,0.0
2,1, 1,21, 0,14,20.00,30.00,WinterDesignDay
8,2333242.638404326
679,10257451.277514719
728,0.0
2,1, 1,21, 0,14,30.00,40.00,WinterDesignDay
8,2333242.638404326
679,10258280.111341458
728,0.0
2,1, 1,21, 0,14,40.00,50.00,WinterDesignDay
8,2333242.638404326
679,10258985.148249181
728,0.0
2,1, 1,21, 0,14,50.00,60.00,WinterDesignDay
8,2333242.638404326
679,10259583.61025159
728,0.0
2,1, 1,21, 0,15, 0.00,10.00,WinterDesignDay
8,2333242.638404326
679,10078912.869272335
728,0.0
2,1, 1,21, 0,15,10.00,20.00,WinterDesignDay
8,2333242.638404326
679,10069651.20274784
728,0.0
2,1, 1,21, 0,15,20.00,30.00,WinterDesignDay
8,2333242.638404326
679,10065397.109495717
728,0.0
2,1, 1,21, 0,15,30.00,40.00,WinterDesignDay
8,2333242.638404326
679,10061476.650959565
728,0.0
2,1, 1,21, 0,15,40.00,50.00,WinterDesignDay
8,2333242.638404326
679,10058160.09414988
728,0.0
2,1, 1,21, 0,15,50.00,60.00,WinterDesignDay
8,2333242.638404326
679,10055383.207103417
728,0.0
2,1, 1,21, 0,16, 0.00,10.00,WinterDesignDay
8,2333242.638404326
679,10053553.530624882
728,0.0
2,1, 1,21, 0,16,10.00,20.00,WinterDesignDay
8,2333242.638404326
679,10051984.989326418
728,0.0
2,1, 1,21, 0,16,20.00,30.00,WinterDesignDay
8,2333242.638404326
679,10050536.951868408
728,0.0
2,1, 1,21, 0,16,30.00,40.00,WinterDesignDay
8,2333242.638404326
679,10049261.184378382
728,0.0
2,1, 1,21, 0,16,40.00,50.00,WinterDesignDay
8,2333242.638404326
679,10048150.343874755
728,0.0
2,1, 1,21, 0,16,50.00,60.00,WinterDesignDay
8,2333242.638404326
679,10047186.863509262
728,0.0
2,1, 1,21, 0,17, 0.00,10.00,WinterDesignDay
8,2333242.638404326
679,10046352.431346916
728,0.0
2,1, 1,21, 0,17,10.00,20.00,WinterDesignDay
8,2333242.638404326
679,10045629.966924914
728,0.0
2,1, 1,21, 0,17,20.00,30.00,WinterDesignDay
8,2333242.638404326
679,10045004.43729665
728,0.0
2,1, 1,21, 0,17,30.00,40.00,WinterDesignDay
8,2333242.638404326
679,10044462.682673391
728,0.0
2,1, 1,21, 0,17,40.00,50.00,WinterDesignDay
8,2333242.638404326
679,10043993.320382137
728,0.0
2,1, 1,21, 0,17,50.00,60.00,WinterDesignDay
8,2333242.638404326
679,10043586.501032398
728,0.0
2,1, 1,21, 0,18, 0.00,10.00,WinterDesignDay
8,2209042.518279086
679,10195984.52975773
728,0.0
2,1, 1,21, 0,18,10.00,20.00,WinterDesignDay
8,2209042.518279086
679,10213061.894118986
728,0.0
2,1, 1,21, 0,18,20.00,30.00,WinterDesignDay
8,2209042.518279086
679,10221010.92694382
728,0.0
2,1, 1,21, 0,18,30.00,40.00,WinterDesignDay
8,2209042.518279086
679,10228163.31569847
728,0.0
2,1, 1,21, 0,18,40.00,50.00,WinterDesignDay
8,2209042.518279086
679,10233582.084662464
728,0.0
2,1, 1,21, 0,18,50.00,60.00,WinterDesignDay
8,2209042.518279086
679,10238157.330142942
728,0.0
2,1, 1,21, 0,19, 0.00,10.00,WinterDesignDay
8,1296245.9102246257
679,10967067.654578966
728,0.0
2,1, 1,21, 0,19,10.00,20.00,WinterDesignDay
8,1296245.9102246257
679,11058936.076455186
728,0.0
2,1, 1,21, 0,19,20.00,30.00,WinterDesignDay
8,1296245.9102246257
679,11102465.814047164
728,0.0
2,1, 1,21, 0,19,30.00,40.00,WinterDesignDay
8,1296245.9102246257
679,11141775.045764123
728,0.0
2,1, 1,21, 0,19,40.00,50.00,WinterDesignDay
8,1296245.9102246257
679,11173095.146869697
728,0.0
2,1, 1,21, 0,19,50.00,60.00,WinterDesignDay
8,1296245.9102246257
679,11198990.280732267
728,0.0
2,1, 1,21, 0,20, 0.00,10.00,WinterDesignDay
8,777747.5461347753
679,11617503.858445937
728,0.0
2,1, 1,21, 0,20,10.00,20.00,WinterDesignDay
8,777747.5461347753
679,11685882.28786511
728,0.0
2,1, 1,21, 0,20,20.00,30.00,WinterDesignDay
8,777747.5461347753
679,11723817.35169163
728,0.0
2,1, 1,21, 0,20,30.00,40.00,WinterDesignDay
8,777747.5461347753
679,11756177.487495907
728,0.0
2,1, 1,21, 0,20,40.00,50.00,WinterDesignDay
8,777747.5461347753
679,11782533.487128895
728,0.0
2,1, 1,21, 0,20,50.00,60.00,WinterDesignDay
8,777747.5461347753
679,11804186.017628443
728,0.0
2,1, 1,21, 0,21, 0.00,10.00,WinterDesignDay
8,777747.5461347753
679,11821240.286761256
728,0.0
2,1, 1,21, 0,21,10.00,20.00,WinterDesignDay
8,777747.5461347753
679,11835362.917599149
728,0.0
2,1, 1,21, 0,21,20.00,30.00,WinterDesignDay
8,777747.5461347753
679,11847056.630937759
728,0.0
2,1, 1,21, 0,21,30.00,40.00,WinterDesignDay
8,777747.5461347753
679,11856630.663354624
728,0.0
2,1, 1,21, 0,21,40.00,50.00,WinterDesignDay
8,777747.5461347753
679,11864467.157216572
728,0.0
2,1, 1,21, 0,21,50.00,60.00,WinterDesignDay
8,777747.5461347753
679,11870881.599012342
728,0.0
2,1, 1,21, 0,22, 0.00,10.00,WinterDesignDay
8,394298.24396461018
679,3163666.974950483
728,0.0
2,1, 1,21, 0,22,10.00,20.00,WinterDesignDay
8,394298.24396461018
679,5916015.534495791
728,0.0
2,1, 1,21, 0,22,20.00,30.00,WinterDesignDay
8,394298.24396461018
679,7705188.995417136
728,0.0
2,1, 1,21, 0,22,30.00,40.00,WinterDesignDay
8,394298.24396461018
679,8119051.027397316
728,0.0
2,1, 1,21, 0,22,40.00,50.00,WinterDesignDay
8,394298.24396461018
679,8463682.633786077
728,0.0
2,1, 1,21, 0,22,50.00,60.00,WinterDesignDay
8,394298.24396461018
679,8813289.392842494
728,0.0
2,1, 1,21, 0,23, 0.00,10.00,WinterDesignDay
8,394298.24396461018
679,9079246.062568788
728,0.0
2,1, 1,21, 0,23,10.00,20.00,WinterDesignDay
8,394298.24396461018
679,9309549.184493375
728,0.0
2,1, 1,21, 0,23,20.00,30.00,WinterDesignDay
8,394298.24396461018
679,9506616.249450304
728,0.0
2,1, 1,21, 0,23,30.00,40.00,WinterDesignDay
8,394298.24396461018
679,9672948.88566257
728,0.0
2,1, 1,21, 0,23,40.00,50.00,WinterDesignDay
8,394298.24396461018
679,9812805.431332259
728,0.0
2,1, 1,21, 0,23,50.00,60.00,WinterDesignDay
8,394298.24396461018
679,9929471.561124679
728,0.0
2,1, 1,21, 0,24, 0.00,10.00,WinterDesignDay
8,332198.18390199009
679,10113255.96912579
728,0.0
2,1, 1,21, 0,24,10.00,20.00,WinterDesignDay
8,332198.18390199009
679,10201829.723435112
728,0.0
2,1, 1,21, 0,24,20.00,30.00,WinterDesignDay
8,332198.18390199009
679,10272028.302915877
728,0.0
2,1, 1,21, 0,24,30.00,40.00,WinterDesignDay
8,332198.18390199009
679,10330506.218854186
728,0.0
2,1, 1,21, 0,24,40.00,50.00,WinterDesignDay
8,332198.18390199009
679,10378992.599101503
728,0.0
2,1, 1,21, 0,24,50.00,60.00,WinterDesignDay
8,332198.18390199009
679,10419062.667927526
728,0.0
1,WINDSOR INTL AP ANN CLG .4% CONDNS DB=>MWB,  42.28, -82.96,  -5.00, 189.60
2,1, 7,21, 0, 1, 0.00,10.00,SummerDesignDay
8,332198.18390199009
679,0.0
728,0.0
2,1, 7,21, 0, 1,10.00,20.00,SummerDesignDay
8,332198.18390199009
679,0.0
728,0.0
2,1, 7,21, 0, 1,20.00,30.00,SummerDesignDay
8,332198.18390199009
679,0.0
728,0.0
2,1, 7,21, 0, 1,30.00,40.00,SummerDesignDay
8,332198.18390199009
679,0.0
728,0.0
2,1, 7,21, 0, 1,40.00,50.00,SummerDesignDay
8,332198.18390199009
679,0.0
728,0.0
2,1, 7,21, 0, 1,50.00,60.00,SummerDesignDay
8,332198.18390199009
679,0.0
728,0.0
2,1, 7,21, 0, 2, 0.00,10.00,SummerDesignDay
8,332198.18390199009
679,0.0
728,0.0
2,1, 7,21, 0, 2,10.00,20.00,SummerDesignDay
8,332198.18390199009
679,0.0
728,0.0
2,1, 7,21, 0, 2,20.00,30.00,SummerDesignDay
8,332198.18390199009
679,0.0
728,0.0
2,1, 7,21, 0, 2,30.00,40.00,SummerDesignDay
8,332198.18390199009
679,0.0
728,0.0
2,1, 7,21, 0, 2,40.00,50.00,SummerDesignDay
8,332198.18390199009
679,0.0
728,0.0
2,1, 7,21, 0, 2,50.00,60.00,SummerDesignDay
8,332198.18390199009
679,0.0
728,0.0
2,1, 7,21, 0, 3, 0.00,10.00,SummerDesignDay
8,332198.18390199009
679,0.0
728,0.0
2,1, 7,21, 0, 3,10.00,20.00,SummerDesignDay
8,332198.18390199009
679,0.0
728,0.0
2,1, 7,21, 0, 3,20.00,30.00,SummerDesignDay
8,332198.18390199009
679,0.0
728,0.0
2,1, 7,21, 0, 3,30.00,40.00,SummerDesignDay
8,332198.18390199009
679,0.0
728,0.0
2,1, 7,21, 0, 3,40.00,50.00,SummerDesignDay
8,332198.18390199009
679,0.0
728,0.0
2,1, 7,21, 0, 3,50.00,60.00,SummerDesignDay
8,332198.18390199009
679,0.0
728,0.0
2,1, 7,21, 0, 4, 0.00,10.00,SummerDesignDay
8,332198.18390199009
679,0.0
728,0.0
2,1, 7,21, 0, 4,10.00,20.00,SummerDesignDay
8,332198.18390199009
679,0.0
728,0.0
2,1, 7,21, 0, 4,20.00,30.00,SummerDesignDay
8,332198.18390199009
679,0.0
728,0.0
2,1, 7,21, 0, 4,30.00,40.00,SummerDesignDay
8,332198.18390199009
679,0.0
728,0.0
2,1, 7,21, 0, 4,40.00,50.00,SummerDesignDay
8,332198.18390199009
679,0.0
728,0.0
2,1, 7,21, 0, 4,50.00,60.00,SummerDesignDay
8,332198.18390199009
679,0.0
728,0.0
2,1, 7,21, 0, 5, 0.00,10.00,SummerDesignDay
8,332198.18390199009
679,0.0
728,0.0
2,1, 7,21, 0, 5,10.00,20.00,SummerDesignDay
8,332198.18390199009
679,0.0
728,0.0
2,1, 7,21, 0, 5,20.00,30.00,SummerDesignDay
8,332198.18390199009
679,0.0
728,0.0
2,1, 7,21, 0, 5,30.00,40.00,SummerDesignDay
8,332198.18390199009
679,0.0
728,0.0
2,1, 7,21, 0, 5,40.00,50.00,SummerDesignDay